 Gaussian 16, Revision A.03,

 ---------------------------------------------------------------------
 #n B3LYP/6-311++G(d,p) Opt freq EmpiricalDispersion=GD3BJ IOp(6/33=2)
 ---------------------------------------------------------------------

 -----------------
 MAA1-DMA1 geo opt
 -----------------
 Symbolic Z-matrix:
 Charge =  0 Multiplicity = 1

 SCF Done:  E(RB3LYP) =  -825.856154533     A.U. after   14 cycles
 SCF Done:  E(RB3LYP) =  -825.860758037     A.U. after   13 cycles
 SCF Done:  E(RB3LYP) =  -825.860713198     A.U. after   12 cycles
 SCF Done:  E(RB3LYP) =  -825.863306779     A.U. after   12 cycles
 SCF Done:  E(RB3LYP) =  -825.865860213     A.U. after   14 cycles
 SCF Done:  E(RB3LYP) =  -825.869234190     A.U. after   15 cycles
 SCF Done:  E(RB3LYP) =  -825.871367733     A.U. after   15 cycles
 SCF Done:  E(RB3LYP) =  -825.871545679     A.U. after   13 cycles
 SCF Done:  E(RB3LYP) =  -825.872528074     A.U. after   12 cycles
 SCF Done:  E(RB3LYP) =  -825.872605903     A.U. after   10 cycles
 SCF Done:  E(RB3LYP) =  -825.872993768     A.U. after    9 cycles
 SCF Done:  E(RB3LYP) =  -825.872994362     A.U. after    8 cycles
 SCF Done:  E(RB3LYP) =  -825.872994537     A.U. after    8 cycles
 SCF Done:  E(RB3LYP) =  -825.872994524     A.U. after    8 cycles
 SCF Done:  E(RB3LYP) =  -825.872994645     A.U. after    7 cycles
 SCF Done:  E(RB3LYP) =  -825.872994658     A.U. after    8 cycles
 SCF Done:  E(RB3LYP) =  -825.872994781     A.U. after    8 cycles
 SCF Done:  E(RB3LYP) =  -825.872994915     A.U. after    8 cycles
 Optimization completed.
    -- Stationary point found.
 Normal termination of Gaussian 16 at Tue Jan 11 15:02:53 2022.

 ----------------------------------------------------------------------
 #N Geom=AllCheck Guess=TCheck SCRF=Check Test GenChk RB3LYP/6-311++G(d
 ,p) Freq
 ----------------------------------------------------------------------

 Structure from the checkpoint file:  "MAA1-DMA1-2.chk"
 -----------------
 MAA1-DMA1 geo opt
 -----------------
 Charge =  0 Multiplicity = 1

 SCF Done:  E(RB3LYP) =  -825.872994915     A.U. after    1 cycles

  Exact polarizability: 216.611  -8.043 161.645   6.337  -9.015 140.151
 Approx polarizability: 270.716 -15.622 227.073  10.620 -19.985 213.234

                      1                      2                      3
                      A                      A                      A
 Frequencies --     16.5374                23.2868                27.0523
 Red. masses --      4.4543                 4.0917                 3.6110
 Frc consts  --      0.0007                 0.0013                 0.0016
 IR Inten    --      0.6645                 0.5558                 0.6511

                      4                      5                      6
                      A                      A                      A
 Frequencies --     44.3430                46.7772                59.0625
 Red. masses --      3.2613                 4.0491                 4.9379
 Frc consts  --      0.0038                 0.0052                 0.0101
 IR Inten    --      1.8449                 0.6946                 2.8492

                      7                      8                      9
                      A                      A                      A
 Frequencies --     71.5319                77.2142                98.2222
 Red. masses --      5.4806                 5.8607                 5.6158
 Frc consts  --      0.0165                 0.0206                 0.0319
 IR Inten    --      0.3747                 0.8333                 3.4253

                     10                     11                     12
                      A                      A                      A
 Frequencies --    119.0665               133.4018               143.1231
 Red. masses --      2.6927                 3.0649                 4.0119
 Frc consts  --      0.0225                 0.0321                 0.0484
 IR Inten    --      1.2945                 0.9339                 8.3925

                     13                     14                     15
                      A                      A                      A
 Frequencies --    187.2383               190.2001               201.9227
 Red. masses --      1.0387                 1.0491                 2.9725
 Frc consts  --      0.0215                 0.0224                 0.0714
 IR Inten    --      0.4893                 0.3353                 1.8206

                     16                     17                     18
                      A                      A                      A
 Frequencies --    223.9207               247.3625               269.2226
 Red. masses --      2.5960                 1.0980                 1.7660
 Frc consts  --      0.0767                 0.0396                 0.0754
 IR Inten    --      1.4624                 0.8848                 0.9642

                     19                     20                     21
                      A                      A                      A
 Frequencies --    285.7858               304.5153               372.8457
 Red. masses --      1.6828                 4.1388                 3.7492
 Frc consts  --      0.0810                 0.2261                 0.3071
 IR Inten    --      3.7480                16.1372                14.4469

                     22                     23                     24
                      A                      A                      A
 Frequencies --    380.2192               389.2682               392.0123
 Red. masses --      3.4607                 2.9235                 2.6866
 Frc consts  --      0.2948                 0.2610                 0.2433
 IR Inten    --      0.7083                 2.3176                 0.3162

                     25                     26                     27
                      A                      A                      A
 Frequencies --    399.6607               422.0482               453.9711
 Red. masses --      2.9039                 2.4157                 2.8131
 Frc consts  --      0.2733                 0.2535                 0.3416
 IR Inten    --      2.8469                10.3996                24.6667

                     28                     29                     30
                      A                      A                      A
 Frequencies --    469.7482               532.7747               540.5556
 Red. masses --      2.9032                 5.1392                 4.5871
 Frc consts  --      0.3774                 0.8595                 0.7897
 IR Inten    --     14.7725                35.1643                11.9172

                     31                     32                     33
                      A                      A                      A
 Frequencies --    600.6198               614.3825               666.1016
 Red. masses --      4.0474                 3.6047                 1.3304
 Frc consts  --      0.8602                 0.8017                 0.3478
 IR Inten    --      0.7238                 0.9776                 5.9643

                     34                     35                     36
                      A                      A                      A
 Frequencies --    666.7343               782.7462               814.0717
 Red. masses --      1.3649                 1.4396                 5.5059
 Frc consts  --      0.3575                 0.5197                 2.1498
 IR Inten    --     10.6083                 8.0259                28.3668

                     37                     38                     39
                      A                      A                      A
 Frequencies --    833.0381               839.4011               845.3651
 Red. masses --      2.6086                 2.6068                 3.6535
 Frc consts  --      1.0666                 1.0822                 1.5383
 IR Inten    --     16.0465                12.0215                 8.4513

                     40                     41                     42
                      A                      A                      A
 Frequencies --    873.9246               947.3749               953.2189
 Red. masses --      3.0756                 1.9738                 1.8405
 Frc consts  --      1.3840                 1.0438                 0.9853
 IR Inten    --     57.6105                 2.7716                 4.9885

                     43                     44                     45
                      A                      A                      A
 Frequencies --    978.3443               985.8762              1018.5332
 Red. masses --      1.3380                 1.3340                 4.0581
 Frc consts  --      0.7545                 0.7639                 2.4804
 IR Inten    --     34.5981                34.2772                19.0623

                     46                     47                     48
                      A                      A                      A
 Frequencies --   1028.1186              1030.7781              1037.0717
 Red. masses --      1.3866                 1.5595                 2.6002
 Frc consts  --      0.8635                 0.9762                 1.6477
 IR Inten    --     17.2564                20.6054                53.9880

                     49                     50                     51
                      A                      A                      A
 Frequencies --   1051.7358              1070.0313              1071.4385
 Red. masses --      1.9830                 1.4873                 1.7441
 Frc consts  --      1.2924                 1.0033                 1.1797
 IR Inten    --     10.0348                 0.0444                 4.5747

                     52                     53                     54
                      A                      A                      A
 Frequencies --   1072.3165              1103.4700              1106.5191
 Red. masses --      2.0568                 1.2126                 1.5133
 Frc consts  --      1.3934                 0.8699                 1.0917
 IR Inten    --      9.1917                 1.7570                11.8035

                     55                     56                     57
                      A                      A                      A
 Frequencies --   1172.4884              1183.2958              1204.1721
 Red. masses --      1.2043                 3.4237                 1.6236
 Frc consts  --      0.9754                 2.8244                 1.3871
 IR Inten    --     62.7952               464.1047                63.2062

                     58                     59                     60
                      A                      A                      A
 Frequencies --   1228.8409              1232.3582              1292.1092
 Red. masses --      3.9504                 2.1059                 2.1693
 Frc consts  --      3.5147                 1.8843                 2.1339
 IR Inten    --    186.5548                52.7922                 8.2855

                     61                     62                     63
                      A                      A                      A
 Frequencies --   1304.0460              1313.4367              1325.2628
 Red. masses --      1.4821                 3.3676                 3.5953
 Frc consts  --      1.4849                 3.4229                 3.7204
 IR Inten    --     33.1376               165.2537               291.6995

                     64                     65                     66
                      A                      A                      A
 Frequencies --   1341.4254              1374.0490              1409.4439
 Red. masses --      1.1155                 1.3549                 1.1876
 Frc consts  --      1.1826                 1.5072                 1.3900
 IR Inten    --      6.4086                 9.5962                12.1584

                     67                     68                     69
                      A                      A                      A
 Frequencies --   1411.5408              1432.4647              1432.9205
 Red. masses --      1.1851                 1.2715                 1.2859
 Frc consts  --      1.3911                 1.5372                 1.5556
 IR Inten    --      8.7983                15.8513                 6.5565

                     70                     71                     72
                      A                      A                      A
 Frequencies --   1435.5233              1443.1706              1468.6060
 Red. masses --      1.2537                 1.1805                 1.1868
 Frc consts  --      1.5222                 1.4486                 1.5081
 IR Inten    --     13.2758                 1.6243                 3.5587

                     73                     74                     75
                      A                      A                      A
 Frequencies --   1475.6799              1477.2161              1487.6938
 Red. masses --      1.0432                 1.0431                 1.0636
 Frc consts  --      1.3384                 1.3410                 1.3869
 IR Inten    --      8.8688                 9.2324                 3.3476

                     76                     77                     78
                      A                      A                      A
 Frequencies --   1491.1029              1492.7662              1494.1551
 Red. masses --      1.0560                 1.0573                 1.0765
 Frc consts  --      1.3834                 1.3881                 1.4160
 IR Inten    --     42.3955                16.6222                15.5136

                     79                     80                     81
                      A                      A                      A
 Frequencies --   1501.1719              1508.4180              1516.1968
 Red. masses --      1.0519                 1.0690                 1.0880
 Frc consts  --      1.3967                 1.4331                 1.4737
 IR Inten    --      6.1343                21.8389                20.6768

                     82                     83                     84
                      A                      A                      A
 Frequencies --   1516.5494              1524.1069              1692.5829
 Red. masses --      1.0776                 1.2543                 5.5401
 Frc consts  --      1.4602                 1.7166                 9.3513
 IR Inten    --      7.3809                11.9235                64.6585

                     85                     86                     87
                      A                      A                      A
 Frequencies --   1692.9822              1746.3471              1771.3357
 Red. masses --      5.5837                 6.0285                10.7329
 Frc consts  --      9.4293                10.8324                19.8413
 IR Inten    --     44.8956               159.5661               158.3223

                     88                     89                     90
                      A                      A                      A
 Frequencies --   2728.1406              2967.9242              2971.0335
 Red. masses --      1.0829                 1.0679                 1.0542
 Frc consts  --      4.7488                 5.5421                 5.4829
 IR Inten    --   3011.3214                15.2331                28.6268

                     91                     92                     93
                      A                      A                      A
 Frequencies --   2981.8879              3033.8412              3035.6988
 Red. masses --      1.0585                 1.0350                 1.0352
 Frc consts  --      5.5453                 5.6126                 5.6209
 IR Inten    --     49.6263                17.4601                16.2172

                     94                     95                     96
                      A                      A                      A
 Frequencies --   3081.7960              3082.1545              3086.6887
 Red. masses --      1.0668                 1.0756                 1.0996
 Frc consts  --      5.9697                 6.0200                 6.1726
 IR Inten    --     16.0570                13.6925                11.9138

                     97                     98                     99
                      A                      A                      A
 Frequencies --   3088.3978              3090.9219              3103.6152
 Red. masses --      1.0998                 1.0741                 1.0902
 Frc consts  --      6.1808                 6.0462                 6.1871
 IR Inten    --     11.1177                31.8889                 3.3044

                    100                    101                    102
                      A                      A                      A
 Frequencies --   3109.1495              3112.9591              3126.6979
 Red. masses --      1.1033                 1.1031                 1.1044
 Frc consts  --      6.2838                 6.2979                 6.3616
 IR Inten    --     19.3154                21.0952                 3.2585

                    103                    104                    105
                      A                      A                      A
 Frequencies --   3130.7008              3142.3970              3142.5368
 Red. masses --      1.1034                 1.1079                 1.0604
 Frc consts  --      6.3719                 6.4456                 6.1701
 IR Inten    --     11.2398                12.6246                 8.8498

                    106                    107                    108
                      A                      A                      A
 Frequencies --   3145.8674              3235.2511              3238.6569
 Red. masses --      1.0599                 1.1164                 1.1168
 Frc consts  --      6.1798                 6.8845                 6.9019
 IR Inten    --      8.1447                 2.4569                 1.8208

 - Thermochemistry -
 -------------------
 Temperature   298.150 Kelvin.  Pressure   1.00000 Atm.
 Atom     1 has atomic number  6 and mass  12.00000

 Molecular mass:   243.14706 amu.
 Principal axes and moments of inertia in atomic units:
                           1         2         3
     Eigenvalues --  2245.60650********************
           X            0.99998   0.00636  -0.00285
           Y           -0.00634   0.99996   0.00641
           Z            0.00289  -0.00639   0.99998
 This molecule is an asymmetric top.
 Rotational symmetry number  1.
 Warning -- assumption of classical behavior for rotation
           may cause significant error
 Rotational temperatures (Kelvin)      0.03857     0.00811     0.00724
 Rotational constants (GHZ):           0.80368     0.16890     0.15095
 Zero-point vibrational energy     844227.9 (Joules/Mol)
                                  201.77531 (Kcal/Mol)
 Warning -- explicit consideration of  32 degrees of freedom as
           vibrations may cause significant error
 Vibrational temperatures:     23.79    33.50    38.92    63.80    67.30
          (Kelvin)             84.98   102.92   111.09   141.32   171.31
                              191.94   205.92   269.39   273.66   290.52
                              322.17   355.90   387.35   411.18   438.13
                              536.44   547.05   560.07   564.02   575.02
                              607.23   653.16   675.86   766.54   777.74
                              864.16   883.96   958.37   959.28  1126.20
                             1171.27  1198.56  1207.71  1216.29  1257.38
                             1363.06  1371.47  1407.62  1418.46  1465.44
                             1479.23  1483.06  1492.11  1513.21  1539.54
                             1541.56  1542.82  1587.65  1592.03  1686.95
                             1702.50  1732.54  1768.03  1773.09  1859.06
                             1876.23  1889.74  1906.76  1930.01  1976.95
                             2027.88  2030.89  2061.00  2061.65  2065.40
                             2076.40  2113.00  2123.17  2125.38  2140.46
                             2145.36  2147.76  2149.76  2159.85  2170.28
                             2181.47  2181.98  2192.85  2435.25  2435.82
                             2512.60  2548.56  3925.19  4270.18  4274.65
                             4290.27  4365.02  4367.69  4434.02  4434.53
                             4441.06  4443.52  4447.15  4465.41  4473.37
                             4478.85  4498.62  4504.38  4521.21  4521.41
                             4526.20  4654.80  4659.70

 Zero-point correction=                           0.321549 (Hartree/Particle)
 Thermal correction to Energy=                    0.342453
 Thermal correction to Enthalpy=                  0.343397
 Thermal correction to Gibbs Free Energy=         0.268122
 Sum of electronic and zero-point Energies=           -825.551445
 Sum of electronic and thermal Energies=              -825.530542
 Sum of electronic and thermal Enthalpies=            -825.529598
 Sum of electronic and thermal Free Energies=         -825.604873

                     E (Thermal)             CV                S
                      KCal/Mol        Cal/Mol-Kelvin    Cal/Mol-Kelvin
 Total                  214.892             73.368            158.430
 Electronic               0.000              0.000              0.000
 Translational            0.889              2.981             42.366
 Rotational               0.889              2.981             34.016
 Vibrational            213.115             67.406             82.047
 Vibration     1          0.593              1.986              7.012
 Vibration     2          0.593              1.985              6.332
 Vibration     3          0.593              1.984              6.035
 Vibration     4          0.595              1.980              5.055
 Vibration     5          0.595              1.979              4.949
 Vibration     6          0.596              1.974              4.488
 Vibration     7          0.598              1.968              4.111
 Vibration     8          0.599              1.964              3.960
 Vibration     9          0.604              1.950              3.489
 Vibration    10          0.609              1.933              3.115
 Vibration    11          0.613              1.920              2.896
 Vibration    12          0.616              1.910              2.762
 Vibration    13          0.632              1.857              2.255
 Vibration    14          0.634              1.853              2.226
 Vibration    15          0.639              1.837              2.116
 Vibration    16          0.649              1.805              1.927
 Vibration    17          0.661              1.767              1.749
 Vibration    18          0.674              1.730              1.601
 Vibration    19          0.684              1.700              1.499
 Vibration    20          0.695              1.665              1.392
 Vibration    21          0.744              1.528              1.068
 Vibration    22          0.750              1.512              1.038
 Vibration    23          0.757              1.493              1.003
 Vibration    24          0.759              1.487              0.992
 Vibration    25          0.766              1.471              0.964
 Vibration    26          0.784              1.422              0.885
 Vibration    27          0.812              1.352              0.784
 Vibration    28          0.827              1.317              0.738
 Vibration    29          0.888              1.178              0.581
 Vibration    30          0.896              1.160              0.564
 Vibration    31          0.959              1.030              0.449
 Vibration    32          0.974              1.001              0.426

                           ! Non-Optimized Parameters !
 Normal termination of Gaussian 16 at Tue Jan 11 15:11:58 2022.
 Gaussian 16:  AM64L-G16RevA.03 25-Dec-2016

 ----------------------------------------------------------------------
 #P B3LYP/6-311++G(d,p) Geom=Allcheck SCF=Tight EmpiricalDispersion=GD3
 BJ Pop=CHELPG SP IOp(6/33=2)
 ----------------------------------------------------------------------

 Structure from the checkpoint file:  "MAA1-DMA1-2.chk"
 -----------------
 MAA1-DMA1 geo opt
 -----------------
 Charge =  0 Multiplicity = 1

                         Standard orientation:
 ---------------------------------------------------------------------
 Center     Atomic      Atomic             Coordinates (Angstroms)
 Number     Number       Type             X           Y           Z
 ---------------------------------------------------------------------
      1          6           0       -3.737932   -2.728280   -0.204271
      2          6           0       -4.334293   -1.349418   -0.139723
      3          6           0       -5.645589   -1.103824   -0.186475
      4          6           0       -3.407911   -0.175438   -0.013879
      5          8           0       -3.777632    0.983796    0.052388
      6          8           0       -2.124016   -0.534963    0.017819
      7          1           0       -4.521831   -3.482668   -0.291074
      8          1           0       -3.142610   -2.939673    0.687675
      9          1           0       -3.062186   -2.823329   -1.058218
     10          1           0       -6.366390   -1.908495   -0.276032
     11          1           0       -6.014851   -0.087191   -0.134455
     12          1           0       -1.540368    0.297157    0.110280
     13          6           0        5.308033   -0.097294   -1.197762
     14          6           0        4.691567   -0.748893    0.009372
     15          6           0        5.386782   -1.428591    0.924623
     16          6           0        3.213481   -0.642196    0.215796
     17          8           0        2.593066   -1.123194    1.135427
     18          8           0        2.631296    0.074847   -0.775590
     19          6           0        1.200081    0.239116   -0.703312
     20          6           0        0.840772    1.360594    0.268997
     21          7           0       -0.596264    1.665378    0.229130
     22          6           0       -1.044048    2.320032    1.465787
     23          6           0       -0.966575    2.478465   -0.937590
     24          1           0        6.386681   -0.260741   -1.209449
     25          1           0        5.116619    0.978740   -1.205457
     26          1           0        4.882593   -0.498272   -2.121186
     27          1           0        6.460516   -1.547712    0.838981
     28          1           0        4.887670   -1.877918    1.774012
     29          1           0        0.737897   -0.698149   -0.393724
     30          1           0        0.902298    0.474008   -1.723723
     31          1           0        1.442735    2.253663    0.040882
     32          1           0        1.095761    1.032833    1.276893
     33          1           0       -0.552967    3.293528    1.612314
     34          1           0       -0.816786    1.679032    2.319253
     35          1           0       -2.123429    2.464196    1.413664
     36          1           0       -2.050134    2.595246   -0.951714
     37          1           0       -0.665350    1.979077   -1.859104
     38          1           0       -0.489952    3.469499   -0.903454
 ---------------------------------------------------------------------

 SCF Done:  E(RB3LYP) =  -825.872994915     A.U. after   14 cycles

 The electronic state is 1-A.
 Alpha  occ. eigenvalues --  -19.17879 -19.13876 -19.11750 -19.09523 -14.34229
 Alpha  occ. eigenvalues --  -10.31041 -10.29179 -10.23856 -10.21292 -10.20445
 Alpha  occ. eigenvalues --  -10.19963 -10.19791 -10.18838 -10.18703 -10.17825
 Alpha  occ. eigenvalues --  -10.17218 -10.16457  -1.11866  -1.08810  -1.03099
 Alpha  occ. eigenvalues --   -0.99851  -0.94957  -0.82807  -0.80759  -0.77817
 Alpha  occ. eigenvalues --   -0.72346  -0.70711  -0.69558  -0.69220  -0.64901
 Alpha  occ. eigenvalues --   -0.62544  -0.60414  -0.56258  -0.54373  -0.51644
 Alpha  occ. eigenvalues --   -0.50378  -0.49451  -0.49143  -0.48775  -0.47954
 Alpha  occ. eigenvalues --   -0.47058  -0.45877  -0.45343  -0.44649  -0.43201
 Alpha  occ. eigenvalues --   -0.42494  -0.42373  -0.41564  -0.41087  -0.40269
 Alpha  occ. eigenvalues --   -0.40199  -0.39886  -0.39426  -0.38502  -0.38300
 Alpha  occ. eigenvalues --   -0.38120  -0.37294  -0.35749  -0.35507  -0.31835
 Alpha  occ. eigenvalues --   -0.30991  -0.29070  -0.28161  -0.26977  -0.26645
 Alpha  occ. eigenvalues --   -0.25958
 Alpha virt. eigenvalues --   -0.06004  -0.04398  -0.01324  -0.00377   0.00066
 Alpha virt. eigenvalues --    0.00563   0.01409   0.01586   0.02077   0.02526
 Alpha virt. eigenvalues --    0.03002   0.03486   0.03576   0.03880   0.04271

 Mulliken charges:
               1
     1  C   -0.658590
     2  C    0.793219
     3  C   -0.628505
     4  C   -0.456238
     5  O   -0.269890
     6  O   -0.271397
     7  H    0.145552
     8  H    0.170596
     9  H    0.166057
    10  H    0.129477
    11  H    0.198187
    12  H    0.780207
    13  C   -0.560991
    14  C    0.859005
    15  C   -0.671545
    16  C   -0.508588
    17  O   -0.222000
    18  O    0.033443
    19  C   -0.299378
    20  C   -0.398257
    21  N   -0.282968
    22  C   -0.319931
    23  C   -0.285181
    24  H    0.155965
    25  H    0.167830
    26  H    0.167017
    27  H    0.134952
    28  H    0.204544
    29  H    0.275386
    30  H    0.162066
    31  H    0.153302
    32  H    0.193949
    33  H    0.141121
    34  H    0.148383
    35  H    0.188277
    36  H    0.197089
    37  H    0.119487
    38  H    0.148347
 Sum of Mulliken charges =  -0.00000

 Dipole moment (field-independent basis, Debye):
    X=              2.7039    Y=              0.9179    Z=             -1.2620  Tot=              3.1219
 Quadrupole moment (field-independent basis, Debye-Ang):
   XX=            -97.9104   YY=           -102.0423   ZZ=           -105.0383
   XY=              6.9147   XZ=             -1.7488   YZ=              1.9590

 ESP charges:
               1
     1  C   -0.064480
     2  C   -0.010067
     3  C   -0.333339
     4  C    0.714240
     5  O   -0.582819
     6  O   -0.529537
     7  H    0.034130
     8  H    0.038815
     9  H    0.026210
    10  H    0.152095
    11  H    0.133894
    12  H    0.142561
    13  C   -0.057655
    14  C   -0.045355
    15  C   -0.299451
    16  C    0.685078
    17  O   -0.530523
    18  O   -0.371492
    19  C    0.121495
    20  C   -0.093560
    21  N    0.284640
    22  C   -0.174384
    23  C   -0.215600
    24  H    0.046769
    25  H    0.022708
    26  H    0.025288
    27  H    0.150451
    28  H    0.132202
    29  H    0.063588
    30  H    0.052031
    31  H    0.033191
    32  H    0.063907
    33  H    0.021373
    34  H    0.061903
    35  H    0.094266
    36  H    0.096304
    37  H    0.065558
    38  H    0.045563
 Sum of ESP charges =  -0.00000

 Normal termination of Gaussian 16 at Tue Jan 11 16:06:54 2022.
