 Gaussian 16, Revision A.03,

 ---------------------------------------------------------------------
 #n B3LYP/6-311++G(d,p) Opt freq EmpiricalDispersion=GD3BJ IOp(6/33=2)
 ---------------------------------------------------------------------

 -----------
 4VP geo opt
 -----------
 Symbolic Z-matrix:
 Charge =  0 Multiplicity = 1

 SCF Done:  E(RB3LYP) =  -325.796196315     A.U. after   14 cycles
 SCF Done:  E(RB3LYP) =  -325.797121424     A.U. after   12 cycles
 SCF Done:  E(RB3LYP) =  -325.797196864     A.U. after   10 cycles
 SCF Done:  E(RB3LYP) =  -325.797199030     A.U. after   10 cycles
 SCF Done:  E(RB3LYP) =  -325.797199221     A.U. after    8 cycles
 SCF Done:  E(RB3LYP) =  -325.797199324     A.U. after    8 cycles
 SCF Done:  E(RB3LYP) =  -325.797199397     A.U. after    8 cycles
 SCF Done:  E(RB3LYP) =  -325.797199473     A.U. after    8 cycles
 SCF Done:  E(RB3LYP) =  -325.797199574     A.U. after    9 cycles
 SCF Done:  E(RB3LYP) =  -325.797199658     A.U. after    8 cycles
 SCF Done:  E(RB3LYP) =  -325.797199711     A.U. after    8 cycles
 Optimization completed.
    -- Stationary point found.
 Normal termination of Gaussian 16 at Thu Apr 21 16:30:26 2022.

 ----------------------------------------------------------------------
 #N Geom=AllCheck Guess=TCheck SCRF=Check Test GenChk RB3LYP/6-311++G(d
 ,p) Freq
 ----------------------------------------------------------------------

 Structure from the checkpoint file:  "4VP-1.chk"
 -----------
 4VP geo opt
 -----------
 Charge =  0 Multiplicity = 1

 SCF Done:  E(RB3LYP) =  -325.797199711     A.U. after    1 cycles

  Exact polarizability: 128.784   6.462  92.699   0.000   0.000  49.997
 Approx polarizability: 199.951  15.812 155.170  -0.000   0.000  74.126

                      1                      2                      3
                      A                      A                      A
 Frequencies --     37.4199               201.7025               236.3421
 Red. masses --      2.4401                 2.8148                 3.2324
 Frc consts  --      0.0020                 0.0675                 0.1064
 IR Inten    --      0.2717                 0.1051                 0.4129

                      4                      5                      6
                      A                      A                      A
 Frequencies --    383.7919               446.5828               458.8966
 Red. masses --      2.5670                 4.7035                 2.4185
 Frc consts  --      0.2228                 0.5527                 0.3001
 IR Inten    --      0.0435                 0.6008                22.2608

                      7                      8                      9
                      A                      A                      A
 Frequencies --    560.0573               663.9921               685.1840
 Red. masses --      3.3105                 1.8807                 6.9765
 Frc consts  --      0.6118                 0.4885                 1.9297
 IR Inten    --      8.9239                 2.4462                 0.4541

                     10                     11                     12
                      A                      A                      A
 Frequencies --    764.9263               801.8365               848.3342
 Red. masses --      2.2329                 3.8766                 1.7626
 Frc consts  --      0.7698                 1.4685                 0.7474
 IR Inten    --      0.9847                 7.7572                38.8599

                     13                     14                     15
                      A                      A                      A
 Frequencies --    875.2787               948.9006               974.7805
 Red. masses --      1.2669                 1.3545                 1.3257
 Frc consts  --      0.5719                 0.7185                 0.7422
 IR Inten    --      3.5889                44.9201                 0.1766

                     16                     17                     18
                      A                      A                      A
 Frequencies --    997.4601              1012.8296              1025.9114
 Red. masses --      1.4574                 7.1597                 1.1311
 Frc consts  --      0.8543                 4.3273                 0.7014
 IR Inten    --      0.0023                 7.3696                17.4977

                     19                     20                     21
                      A                      A                      A
 Frequencies --   1049.4174              1094.1311              1119.8732
 Red. masses --      1.5647                 1.8943                 1.5136
 Frc consts  --      1.0153                 1.3361                 1.1184
 IR Inten    --      1.2625                 1.4370                 0.2241

                     22                     23                     24
                      A                      A                      A
 Frequencies --   1230.9477              1249.8676              1281.4051
 Red. masses --      2.3676                 1.3919                 7.6492
 Frc consts  --      2.1136                 1.2811                 7.4001
 IR Inten    --      0.0605                 7.6364                 4.4989

                     25                     26                     27
                      A                      A                      A
 Frequencies --   1333.5525              1364.9799              1440.8273
 Red. masses --      1.4049                 1.2999                 1.8338
 Frc consts  --      1.4720                 1.4270                 2.2429
 IR Inten    --      0.7576                 1.9190                20.3129

                     28                     29                     30
                      A                      A                      A
 Frequencies --   1459.1159              1525.9494              1591.3545
 Red. masses --      1.3309                 2.1712                 6.2870
 Frc consts  --      1.6695                 2.9787                 9.3805
 IR Inten    --      1.4076                 4.0453                24.7987

                     31                     32                     33
                      A                      A                      A
 Frequencies --   1635.4673              1690.6296              3138.4248
 Red. masses --      5.3691                 4.3582                 1.0769
 Frc consts  --      8.4613                 7.3392                 6.2498
 IR Inten    --     68.0187                 2.7316                12.5066

                     34                     35                     36
                      A                      A                      A
 Frequencies --   3146.6008              3148.2117              3151.4372
 Red. masses --      1.0726                 1.0875                 1.0899
 Frc consts  --      6.2570                 6.3502                 6.3776
 IR Inten    --      1.9237                22.1879                15.0578

                     37                     38                     39
                      A                      A                      A
 Frequencies --   3176.1511              3190.7865              3227.6058
 Red. masses --      1.0939                 1.0927                 1.1154
 Frc consts  --      6.5019                 6.5544                 6.8459
 IR Inten    --     17.3401                 8.4628                 9.5977

 - Thermochemistry -
 -------------------
 Temperature   298.150 Kelvin.  Pressure   1.00000 Atm.
 Atom     1 has atomic number  1 and mass   1.00783

 Molecular mass:   105.05785 amu.
 Principal axes and moments of inertia in atomic units:
                           1         2         3
     Eigenvalues --   330.034051168.629451498.66350
           X            0.99995   0.00983   0.00000
           Y           -0.00983   0.99995   0.00000
           Z           -0.00000  -0.00000   1.00000
 This molecule is an asymmetric top.
 Rotational symmetry number  1.
 Rotational temperatures (Kelvin)      0.26244     0.07412     0.05779
 Rotational constants (GHZ):           5.46835     1.54432     1.20423
 Zero-point vibrational energy     318033.0 (Joules/Mol)
                                   76.01171 (Kcal/Mol)
 Warning -- explicit consideration of   7 degrees of freedom as
           vibrations may cause significant error
 Vibrational temperatures:     53.84   290.20   340.04   552.19   642.53
          (Kelvin)            660.25   805.80   955.34   985.83  1100.56
                             1153.66  1220.56  1259.33  1365.26  1402.49
                             1435.12  1457.24  1476.06  1509.88  1574.21
                             1611.25  1771.06  1798.28  1843.66  1918.68
                             1963.90  2073.03  2099.34  2195.50  2289.60
                             2353.07  2432.44  4515.49  4527.26  4529.57
                             4534.22  4569.77  4590.83  4643.80

 Zero-point correction=                           0.121132 (Hartree/Particle)
 Thermal correction to Energy=                    0.127815
 Thermal correction to Enthalpy=                  0.128759
 Thermal correction to Gibbs Free Energy=         0.089556
 Sum of electronic and zero-point Energies=           -325.676067
 Sum of electronic and thermal Energies=              -325.669385
 Sum of electronic and thermal Enthalpies=            -325.668441
 Sum of electronic and thermal Free Energies=         -325.707643

                     E (Thermal)             CV                S
                      KCal/Mol        Cal/Mol-Kelvin    Cal/Mol-Kelvin
 Total                   80.205             25.088             82.509
 Electronic               0.000              0.000              0.000
 Translational            0.889              2.981             39.865
 Rotational               0.889              2.981             27.849
 Vibrational             78.427             19.126             14.795
 Vibration     1          0.594              1.982              5.391
 Vibration     2          0.639              1.837              2.118
 Vibration     3          0.655              1.785              1.830
 Vibration     4          0.753              1.505              1.024
 Vibration     5          0.806              1.368              0.806
 Vibration     6          0.817              1.341              0.769
 Vibration     7          0.916              1.118              0.524

 Optimization completed.
    -- Stationary point found.
 Normal termination of Gaussian 16 at Thu Apr 21 16:31:02 2022.
 Gaussian 16:  ES64L-G16RevA.03 25-Dec-2016

 ----------------------------------------------------------------------
 #P B3LYP/6-311++G(d,p) Geom=Allcheck SCF=Tight EmpiricalDispersion=GD3
 BJ Pop=CHELPG SP IOp(6/33=2)
 ----------------------------------------------------------------------

 Structure from the checkpoint file:  "4VP-1.chk"
 -----------
 4VP geo opt
 -----------
 Charge =  0 Multiplicity = 1

                         Standard orientation:
 ---------------------------------------------------------------------
 Center     Atomic      Atomic             Coordinates (Angstroms)
 Number     Number       Type             X           Y           Z
 ---------------------------------------------------------------------
      1          1           0        3.978711   -0.002296    0.000052
      2          6           0        2.949757    0.335293    0.000043
      3          1           0        2.792411    1.407769    0.000080
      4          6           0        1.941639   -0.540036   -0.000021
      5          1           0        2.175462   -1.601602   -0.000118
      6          6           0        0.506341   -0.225627   -0.000028
      7          6           0       -0.005504    1.079408   -0.000037
      8          1           0        0.651719    1.939832   -0.000080
      9          6           0       -1.380446    1.271223   -0.000006
     10          1           0       -1.788723    2.277595    0.000049
     11          7           0       -2.275989    0.275243    0.000020
     12          6           0       -1.790239   -0.968095    0.000019
     13          1           0       -2.523653   -1.769249   -0.000020
     14          6           0       -0.430249   -1.265490    0.000007
     15          1           0       -0.101795   -2.298810    0.000031
 ---------------------------------------------------------------------

 SCF Done:  E(RB3LYP) =  -325.797199711     A.U. after   14 cycles

 The electronic state is 1-A.
 Alpha  occ. eigenvalues --  -14.31474 -10.21324 -10.21290 -10.21023 -10.19704
 Alpha  occ. eigenvalues --  -10.19006 -10.18980 -10.18736  -0.95139  -0.84230
 Alpha  occ. eigenvalues --   -0.77241  -0.76860  -0.65720  -0.63941  -0.58409
 Alpha  occ. eigenvalues --   -0.52677  -0.50307  -0.47853  -0.45820  -0.43664
 Alpha  occ. eigenvalues --   -0.42869  -0.41204  -0.38143  -0.36552  -0.33904
 Alpha  occ. eigenvalues --   -0.27471  -0.26621  -0.26054
 Alpha virt. eigenvalues --   -0.06900  -0.02796  -0.00928   0.00144   0.00691
 Alpha virt. eigenvalues --    0.01853   0.02578   0.03254   0.04730   0.04983
 Alpha virt. eigenvalues --    0.05747   0.06555   0.07439   0.08590   0.08696

 Mulliken charges:
               1
     1  H    0.163852
     2  C   -0.405763
     3  H    0.123205
     4  C   -0.334434
     5  H    0.144746
     6  C    0.770588
     7  C   -0.365843
     8  H    0.113814
     9  C   -0.588554
    10  H    0.180368
    11  N   -0.054586
    12  C   -0.675383
    13  H    0.164233
    14  C    0.584024
    15  H    0.179731
 Sum of Mulliken charges =  -0.00000

 Dipole moment (field-independent basis, Debye):
    X=              2.5764    Y=             -0.4096    Z=             -0.0001  Tot=              2.6088
 Quadrupole moment (field-independent basis, Debye-Ang):
   XX=            -51.0695   YY=            -40.5541   ZZ=            -51.6074
   XY=              1.8570   XZ=              0.0000   YZ=              0.0002

 ESP charges:
               1
     1  H    0.122101
     2  C   -0.232520
     3  H    0.125798
     4  C   -0.287719
     5  H    0.148083
     6  C    0.570857
     7  C   -0.528202
     8  H    0.164738
     9  C    0.500029
    10  H   -0.008566
    11  N   -0.693632
    12  C    0.509851
    13  H   -0.006719
    14  C   -0.528748
    15  H    0.144649
 Sum of ESP charges =  -0.00000

 Normal termination of Gaussian 16 at Thu Apr 21 16:32:36 2022.
