 Gaussian 16, Revision A.03,

 ---------------------------------------------------------------------
 #n B3LYP/6-311++G(d,p) Opt freq EmpiricalDispersion=GD3BJ IOp(6/33=2)
 ---------------------------------------------------------------------

 -----------
 4VP geo opt
 -----------
 Symbolic Z-matrix:
 Charge =  0 Multiplicity = 1

 SCF Done:  E(RB3LYP) =  -325.789954322     A.U. after   14 cycles
 SCF Done:  E(RB3LYP) =  -325.790978148     A.U. after   12 cycles
 SCF Done:  E(RB3LYP) =  -325.791075448     A.U. after   10 cycles
 SCF Done:  E(RB3LYP) =  -325.791152395     A.U. after   11 cycles
 SCF Done:  E(RB3LYP) =  -325.754285724     A.U. after   14 cycles
 SCF Done:  E(RB3LYP) =  -325.791161005     A.U. after    9 cycles
 SCF Done:  E(RB3LYP) =  -325.770903162     A.U. after   13 cycles
 SCF Done:  E(RB3LYP) =  -325.780271930     A.U. after   13 cycles
 SCF Done:  E(RB3LYP) =  -325.791161660     A.U. after    7 cycles
 SCF Done:  E(RB3LYP) =  -325.790419047     A.U. after   12 cycles
 SCF Done:  E(RB3LYP) =  -325.794760223     A.U. after   13 cycles
 SCF Done:  E(RB3LYP) =  -325.796758562     A.U. after   13 cycles
 SCF Done:  E(RB3LYP) =  -325.797163340     A.U. after   12 cycles
 SCF Done:  E(RB3LYP) =  -325.797183684     A.U. after   11 cycles
 SCF Done:  E(RB3LYP) =  -325.797195728     A.U. after   11 cycles
 SCF Done:  E(RB3LYP) =  -325.797198815     A.U. after   10 cycles
 SCF Done:  E(RB3LYP) =  -325.797199626     A.U. after   10 cycles
 SCF Done:  E(RB3LYP) =  -325.797199722     A.U. after    9 cycles
 Optimization completed.
    -- Stationary point found.
 Normal termination of Gaussian 16 at Thu Apr 21 16:35:29 2022.

 ----------------------------------------------------------------------
 #N Geom=AllCheck Guess=TCheck SCRF=Check Test GenChk RB3LYP/6-311++G(d
 ,p) Freq
 ----------------------------------------------------------------------

 Structure from the checkpoint file:  "4VP-2.chk"
 -----------
 4VP geo opt
 -----------
 Charge =  0 Multiplicity = 1

 SCF Done:  E(RB3LYP) =  -325.797199722     A.U. after    1 cycles

  Exact polarizability: 128.784   6.462  92.700   0.002   0.002  49.998
 Approx polarizability: 199.949  15.811 155.171   0.004   0.004  74.126

                      1                      2                      3
                      A                      A                      A
 Frequencies --     37.5841               201.7233               236.3701
 Red. masses --      2.4405                 2.8146                 3.2325
 Frc consts  --      0.0020                 0.0675                 0.1064
 IR Inten    --      0.2720                 0.1053                 0.4128

                      4                      5                      6
                      A                      A                      A
 Frequencies --    383.7984               446.5802               458.9108
 Red. masses --      2.5670                 4.7035                 2.4186
 Frc consts  --      0.2228                 0.5527                 0.3001
 IR Inten    --      0.0436                 0.6010                22.2587

                      7                      8                      9
                      A                      A                      A
 Frequencies --    560.0638               664.0036               685.1903
 Red. masses --      3.3104                 1.8808                 6.9765
 Frc consts  --      0.6118                 0.4886                 1.9298
 IR Inten    --      8.9249                 2.4443                 0.4540

                     10                     11                     12
                      A                      A                      A
 Frequencies --    764.9280               801.8296               848.3404
 Red. masses --      2.2327                 3.8764                 1.7625
 Frc consts  --      0.7697                 1.4684                 0.7474
 IR Inten    --      0.9851                 7.7582                38.8559

                     13                     14                     15
                      A                      A                      A
 Frequencies --    875.2921               948.9270               974.7894
 Red. masses --      1.2669                 1.3544                 1.3257
 Frc consts  --      0.5719                 0.7186                 0.7422
 IR Inten    --      3.5906                44.9210                 0.1773

                     16                     17                     18
                      A                      A                      A
 Frequencies --    997.4669              1012.8505              1025.9210
 Red. masses --      1.4574                 7.1603                 1.1311
 Frc consts  --      0.8543                 4.3278                 0.7014
 IR Inten    --      0.0023                 7.3654                17.4993

                     19                     20                     21
                      A                      A                      A
 Frequencies --   1049.4065              1094.1630              1119.8737
 Red. masses --      1.5646                 1.8939                 1.5136
 Frc consts  --      1.0152                 1.3359                 1.1184
 IR Inten    --      1.2622                 1.4376                 0.2239

                     22                     23                     24
                      A                      A                      A
 Frequencies --   1230.9295              1249.8849              1281.4711
 Red. masses --      2.3701                 1.3911                 7.6561
 Frc consts  --      2.1159                 1.2804                 7.4075
 IR Inten    --      0.0606                 7.6493                 4.4859

                     25                     26                     27
                      A                      A                      A
 Frequencies --   1333.5535              1364.9773              1440.8145
 Red. masses --      1.4049                 1.3001                 1.8334
 Frc consts  --      1.4721                 1.4272                 2.2424
 IR Inten    --      0.7567                 1.9213                20.3058

                     28                     29                     30
                      A                      A                      A
 Frequencies --   1459.1225              1525.9770              1591.3884
 Red. masses --      1.3310                 2.1713                 6.2874
 Frc consts  --      1.6695                 2.9789                 9.3816
 IR Inten    --      1.4082                 4.0552                24.7996

                     31                     32                     33
                      A                      A                      A
 Frequencies --   1635.4485              1690.5636              3138.3502
 Red. masses --      5.3689                 4.3567                 1.0770
 Frc consts  --      8.4608                 7.3362                 6.2500
 IR Inten    --     68.0243                 2.7316                12.5056

                     34                     35                     36
                      A                      A                      A
 Frequencies --   3146.5573              3148.1723              3151.4043
 Red. masses --      1.0725                 1.0875                 1.0899
 Frc consts  --      6.2563                 6.3500                 6.3775
 IR Inten    --      1.9332                22.1820                15.0660

                     37                     38                     39
                      A                      A                      A
 Frequencies --   3176.1032              3190.7737              3227.5525
 Red. masses --      1.0939                 1.0927                 1.1154
 Frc consts  --      6.5017                 6.5543                 6.8457
 IR Inten    --     17.3389                 8.4624                 9.5991

 - Thermochemistry -
 -------------------
 Temperature   298.150 Kelvin.  Pressure   1.00000 Atm.
 Atom     1 has atomic number  1 and mass   1.00783

 Molecular mass:   105.05785 amu.
 Principal axes and moments of inertia in atomic units:
                           1         2         3
     Eigenvalues --   330.031851168.635661498.66748
           X            0.99995   0.00983   0.00000
           Y           -0.00983   0.99995   0.00001
           Z           -0.00000  -0.00001   1.00000
 This molecule is an asymmetric top.
 Rotational symmetry number  1.
 Rotational temperatures (Kelvin)      0.26244     0.07412     0.05779
 Rotational constants (GHZ):           5.46838     1.54431     1.20423
 Zero-point vibrational energy     318033.5 (Joules/Mol)
                                   76.01184 (Kcal/Mol)
 Warning -- explicit consideration of   7 degrees of freedom as
           vibrations may cause significant error
 Vibrational temperatures:     54.08   290.23   340.08   552.20   642.53
          (Kelvin)            660.27   805.81   955.35   985.84  1100.56
                             1153.65  1220.57  1259.35  1365.29  1402.50
                             1435.13  1457.27  1476.07  1509.86  1574.26
                             1611.25  1771.03  1798.31  1843.75  1918.69
                             1963.90  2073.01  2099.35  2195.54  2289.65
                             2353.05  2432.34  4515.39  4527.19  4529.52
                             4534.17  4569.70  4590.81  4643.73

 Zero-point correction=                           0.121133 (Hartree/Particle)
 Thermal correction to Energy=                    0.127814
 Thermal correction to Enthalpy=                  0.128759
 Thermal correction to Gibbs Free Energy=         0.089560
 Sum of electronic and zero-point Energies=           -325.676067
 Sum of electronic and thermal Energies=              -325.669385
 Sum of electronic and thermal Enthalpies=            -325.668441
 Sum of electronic and thermal Free Energies=         -325.707639

                     E (Thermal)             CV                S
                      KCal/Mol        Cal/Mol-Kelvin    Cal/Mol-Kelvin
 Total                   80.205             25.087             82.500
 Electronic               0.000              0.000              0.000
 Translational            0.889              2.981             39.865
 Rotational               0.889              2.981             27.849
 Vibrational             78.427             19.126             14.786
 Vibration     1          0.594              1.982              5.383
 Vibration     2          0.639              1.837              2.117
 Vibration     3          0.655              1.785              1.830
 Vibration     4          0.753              1.505              1.024
 Vibration     5          0.806              1.368              0.806
 Vibration     6          0.817              1.341              0.769
 Vibration     7          0.916              1.118              0.524

 Optimization completed.
    -- Stationary point found.
 Normal termination of Gaussian 16 at Thu Apr 21 16:36:04 2022.
 Gaussian 16:  ES64L-G16RevA.03 25-Dec-2016

 ----------------------------------------------------------------------
 #P B3LYP/6-311++G(d,p) Geom=Allcheck SCF=Tight EmpiricalDispersion=GD3
 BJ Pop=CHELPG SP IOp(6/33=2)
 ----------------------------------------------------------------------

 Structure from the checkpoint file:  "4VP-2.chk"
 -----------
 4VP geo opt
 -----------
 Charge =  0 Multiplicity = 1

                         Standard orientation:
 ---------------------------------------------------------------------
 Center     Atomic      Atomic             Coordinates (Angstroms)
 Number     Number       Type             X           Y           Z
 ---------------------------------------------------------------------
      1          1           0        3.978761   -0.002162    0.000105
      2          6           0        2.949760    0.335310    0.000279
      3          1           0        2.792340    1.407778    0.000821
      4          6           0        1.941649   -0.540057   -0.000207
      5          1           0        2.175540   -1.601619   -0.000659
      6          6           0        0.506353   -0.225621   -0.000113
      7          6           0       -0.005507    1.079399   -0.000175
      8          1           0        0.651704    1.939834   -0.000396
      9          6           0       -1.380491    1.271196   -0.000047
     10          1           0       -1.788704    2.277597   -0.000112
     11          7           0       -2.275982    0.275249    0.000106
     12          6           0       -1.790232   -0.968083    0.000128
     13          1           0       -2.523622   -1.769264    0.000283
     14          6           0       -0.430259   -1.265494    0.000001
     15          1           0       -0.101787   -2.298814    0.000013
 ---------------------------------------------------------------------

 SCF Done:  E(RB3LYP) =  -325.797199722     A.U. after   14 cycles

 The electronic state is 1-A.
 Alpha  occ. eigenvalues --  -14.31474 -10.21324 -10.21290 -10.21023 -10.19704
 Alpha  occ. eigenvalues --  -10.19006 -10.18980 -10.18736  -0.95140  -0.84230
 Alpha  occ. eigenvalues --   -0.77241  -0.76859  -0.65720  -0.63941  -0.58409
 Alpha  occ. eigenvalues --   -0.52677  -0.50307  -0.47853  -0.45820  -0.43663
 Alpha  occ. eigenvalues --   -0.42869  -0.41205  -0.38143  -0.36552  -0.33904
 Alpha  occ. eigenvalues --   -0.27471  -0.26621  -0.26054
 Alpha virt. eigenvalues --   -0.06900  -0.02796  -0.00928   0.00144   0.00691
 Alpha virt. eigenvalues --    0.01853   0.02578   0.03254   0.04730   0.04983
 Alpha virt. eigenvalues --    0.05747   0.06555   0.07439   0.08590   0.08696

 Mulliken charges:
               1
     1  H    0.163861
     2  C   -0.405790
     3  H    0.123201
     4  C   -0.334421
     5  H    0.144753
     6  C    0.770593
     7  C   -0.365805
     8  H    0.113817
     9  C   -0.588505
    10  H    0.180356
    11  N   -0.054578
    12  C   -0.675360
    13  H    0.164231
    14  C    0.583914
    15  H    0.179732
 Sum of Mulliken charges =  -0.00000

 Dipole moment (field-independent basis, Debye):
    X=              2.5764    Y=             -0.4096    Z=             -0.0002  Tot=              2.6088
 Quadrupole moment (field-independent basis, Debye-Ang):
   XX=            -51.0692   YY=            -40.5543   ZZ=            -51.6074
   XY=              1.8568   XZ=              0.0001   YZ=              0.0006

 ESP charges:
               1
     1  H    0.122296
     2  C   -0.233691
     3  H    0.126191
     4  C   -0.285802
     5  H    0.147669
     6  C    0.568919
     7  C   -0.526764
     8  H    0.164274
     9  C    0.499662
    10  H   -0.008536
    11  N   -0.693652
    12  C    0.510473
    13  H   -0.006958
    14  C   -0.529012
    15  H    0.144930
 Sum of ESP charges =   0.00000

 Normal termination of Gaussian 16 at Thu Apr 21 16:37:38 2022.
