 Gaussian 16, Revision A.03,

 ---------------------------------------------------------------------
 #n B3LYP/6-311++G(d,p) Opt freq EmpiricalDispersion=GD3BJ IOp(6/33=2)
 ---------------------------------------------------------------------

 -----------
 MAA geo opt
 -----------
 Symbolic Z-matrix:
 Charge =  0 Multiplicity = 1

 SCF Done:  E(RB3LYP) =  -306.594484753     A.U. after   13 cycles
 SCF Done:  E(RB3LYP) =  -306.596505943     A.U. after   11 cycles
 SCF Done:  E(RB3LYP) =  -306.596661738     A.U. after   10 cycles
 SCF Done:  E(RB3LYP) =  -306.596669722     A.U. after    9 cycles
 SCF Done:  E(RB3LYP) =  -306.596659299     A.U. after   10 cycles
 SCF Done:  E(RB3LYP) =  -306.596673171     A.U. after    9 cycles
 Optimization completed.
    -- Stationary point found.
 Normal termination of Gaussian 16 at Thu Apr 21 16:32:39 2022.

 ----------------------------------------------------------------------
 #N Geom=AllCheck Guess=TCheck SCRF=Check Test GenChk RB3LYP/6-311++G(d
 ,p) Freq
 ----------------------------------------------------------------------

 Structure from the checkpoint file:  "MAA-2.chk"
 -----------
 MAA geo opt
 -----------
 Charge =  0 Multiplicity = 1

 SCF Done:  E(RB3LYP) =  -306.596673171     A.U. after    1 cycles

  Exact polarizability:  62.893   5.295  66.614  -0.000  -0.001  36.811
 Approx polarizability:  83.786   9.820 100.943   0.000  -0.003  52.047

                      1                      2                      3
                      A                      A                      A
 Frequencies --     61.4738               189.2114               271.6965
 Red. masses --      4.9800                 1.0309                 3.7403
 Frc consts  --      0.0111                 0.0217                 0.1627
 IR Inten    --      1.3765                 0.2215                 0.3284

                      4                      5                      6
                      A                      A                      A
 Frequencies --    357.5363               388.6750               513.2732
 Red. masses --      2.8532                 2.6979                 4.9716
 Frc consts  --      0.2149                 0.2401                 0.7717
 IR Inten    --     12.8455                 2.6489                10.6453

                      7                      8                      9
                      A                      A                      A
 Frequencies --    572.9241               600.9991               681.5970
 Red. masses --      3.7858                 1.2224                 1.2623
 Frc consts  --      0.7321                 0.2601                 0.3455
 IR Inten    --     22.3372                47.9137                58.9349

                     10                     11                     12
                      A                      A                      A
 Frequencies --    769.0278               833.2378               952.5386
 Red. masses --      3.7794                 2.6416                 1.8324
 Frc consts  --      1.3169                 1.0806                 0.9796
 IR Inten    --     16.6759                23.8496                 1.3188

                     13                     14                     15
                      A                      A                      A
 Frequencies --    986.9691              1029.2104              1072.3720
 Red. masses --      1.3331                 1.3811                 1.4820
 Frc consts  --      0.7651                 0.8619                 1.0041
 IR Inten    --     37.4295                27.2957                 0.1202

                     16                     17                     18
                      A                      A                      A
 Frequencies --   1149.9617              1258.8108              1363.3195
 Red. masses --      3.3698                 1.9389                 2.8112
 Frc consts  --      2.6255                 1.8102                 3.0785
 IR Inten    --    350.4457                14.1047                67.1512

                     19                     20                     21
                      A                      A                      A
 Frequencies --   1413.1335              1435.8319              1478.1790
 Red. masses --      1.1839                 1.2507                 1.0422
 Frc consts  --      1.3930                 1.5192                 1.3418
 IR Inten    --      9.6904                11.1813                 8.7256

                     22                     23                     24
                      A                      A                      A
 Frequencies --   1494.1295              1693.4730              1792.5178
 Red. masses --      1.0600                 5.4912                 9.2975
 Frc consts  --      1.3942                 9.2785                17.6012
 IR Inten    --     29.5762                44.6940               269.8265

                     25                     26                     27
                      A                      A                      A
 Frequencies --   3036.2825              3088.9763              3114.9673
 Red. masses --      1.0354                 1.0999                 1.1030
 Frc consts  --      5.6238                 6.1836                 6.3057
 IR Inten    --     15.1653                11.2189                16.7193

                     28                     29                     30
                      A                      A                      A
 Frequencies --   3146.6751              3239.7648              3767.7822
 Red. masses --      1.0598                 1.1170                 1.0645
 Frc consts  --      6.1829                 6.9077                 8.9039
 IR Inten    --      6.3869                 1.4130                81.7432

 - Thermochemistry -
 -------------------
 Temperature   298.150 Kelvin.  Pressure   1.00000 Atm.
 Atom     1 has atomic number  1 and mass   1.00783

 Molecular mass:    86.03678 amu.
 Principal axes and moments of inertia in atomic units:
                           1         2         3
     Eigenvalues --   339.78230 511.69696 840.40922
           X            0.99993   0.01217   0.00000
           Y           -0.01217   0.99993  -0.00000
           Z           -0.00000   0.00000   1.00000
 This molecule is an asymmetric top.
 Rotational symmetry number  1.
 Rotational temperatures (Kelvin)      0.25491     0.16927     0.10306
 Rotational constants (GHZ):           5.31146     3.52697     2.14746
 Zero-point vibrational energy     249747.7 (Joules/Mol)
                                   59.69112 (Kcal/Mol)
 Warning -- explicit consideration of   8 degrees of freedom as
           vibrations may cause significant error
 Vibrational temperatures:     88.45   272.23   390.91   514.42   559.22
          (Kelvin)            738.49   824.31   864.70   980.67  1106.46
                             1198.84  1370.49  1420.03  1480.80  1542.90
                             1654.54  1811.15  1961.51  2033.18  2065.84
                             2126.77  2149.72  2436.53  2579.03  4368.53
                             4444.35  4481.74  4527.36  4661.30  5421.00

 Zero-point correction=                           0.095124 (Hartree/Particle)
 Thermal correction to Energy=                    0.101516
 Thermal correction to Enthalpy=                  0.102460
 Thermal correction to Gibbs Free Energy=         0.064938
 Sum of electronic and zero-point Energies=           -306.501549
 Sum of electronic and thermal Energies=              -306.495157
 Sum of electronic and thermal Enthalpies=            -306.494213
 Sum of electronic and thermal Free Energies=         -306.531735

                     E (Thermal)             CV                S
                      KCal/Mol        Cal/Mol-Kelvin    Cal/Mol-Kelvin
 Total                   63.702             22.494             78.972
 Electronic               0.000              0.000              0.000
 Translational            0.889              2.981             39.270
 Rotational               0.889              2.981             26.483
 Vibrational             61.925             16.533             13.220
 Vibration     1          0.597              1.973              4.409
 Vibration     2          0.633              1.855              2.236
 Vibration     3          0.675              1.725              1.585
 Vibration     4          0.733              1.560              1.133
 Vibration     5          0.757              1.494              1.005
 Vibration     6          0.868              1.221              0.626
 Vibration     7          0.929              1.090              0.499
 Vibration     8          0.959              1.030              0.448

 Optimization completed.
    -- Stationary point found.
 Normal termination of Gaussian 16 at Thu Apr 21 16:32:57 2022.
 Gaussian 16:  ES64L-G16RevA.03 25-Dec-2016

 ----------------------------------------------------------------------
 #P B3LYP/6-311++G(d,p) Geom=Allcheck SCF=Tight EmpiricalDispersion=GD3
 BJ Pop=CHELPG SP IOp(6/33=2)
 ----------------------------------------------------------------------

 Structure from the checkpoint file:  "MAA-2.chk"
 -----------
 MAA geo opt
 -----------
 Charge =  0 Multiplicity = 1

                         Standard orientation:
 ---------------------------------------------------------------------
 Center     Atomic      Atomic             Coordinates (Angstroms)
 Number     Number       Type             X           Y           Z
 ---------------------------------------------------------------------
      1          1           0       -2.212608   -1.113951   -0.000211
      2          8           0       -1.245888   -1.172055   -0.000091
      3          6           0       -0.777209    0.103743    0.000194
      4          8           0       -1.519034    1.057008   -0.000002
      5          6           0        0.716634    0.148605    0.000039
      6          6           0        1.288809    1.355215   -0.000071
      7          1           0        2.366924    1.464419   -0.000167
      8          1           0        0.682768    2.252525   -0.000056
      9          6           0        1.481709   -1.145945    0.000024
     10          1           0        1.233667   -1.749316    0.876976
     11          1           0        1.233517   -1.749390   -0.876836
     12          1           0        2.555457   -0.953620   -0.000075
 ---------------------------------------------------------------------

 SCF Done:  E(RB3LYP) =  -306.596673171     A.U. after   13 cycles

 The electronic state is 1-A.
 Alpha  occ. eigenvalues --  -19.18018 -19.12030 -10.31447 -10.20620 -10.18910
 Alpha  occ. eigenvalues --  -10.17862  -1.12067  -1.03006  -0.82637  -0.70795
 Alpha  occ. eigenvalues --   -0.67450  -0.56782  -0.50596  -0.49538  -0.46767
 Alpha  occ. eigenvalues --   -0.44049  -0.43016  -0.41950  -0.40011  -0.37830
 Alpha  occ. eigenvalues --   -0.33940  -0.29274  -0.28315
 Alpha virt. eigenvalues --   -0.06241  -0.01199   0.00072   0.01811   0.03068
 Alpha virt. eigenvalues --    0.03077   0.05182   0.05494   0.06268   0.07761
 Alpha virt. eigenvalues --    0.08406   0.08561   0.09925   0.10389   0.11306

 Mulliken charges:
               1
     1  H    0.291095
     2  O   -0.183383
     3  C   -0.074048
     4  O   -0.315691
     5  C    0.712279
     6  C   -0.621913
     7  H    0.125775
     8  H    0.196725
     9  C   -0.626155
    10  H    0.175979
    11  H    0.175978
    12  H    0.143358
 Sum of Mulliken charges =  -0.00000

 Dipole moment (field-independent basis, Debye):
    X=              1.3243    Y=             -1.3245    Z=              0.0000  Tot=              1.8730
 Quadrupole moment (field-independent basis, Debye-Ang):
   XX=            -32.3062   YY=            -37.4240   ZZ=            -36.9010
   XY=              5.1021   XZ=              0.0002   YZ=             -0.0000

 ESP charges:
               1
     1  H    0.417456
     2  O   -0.594835
     3  C    0.703806
     4  O   -0.570964
     5  C    0.048120
     6  C   -0.377496
     7  H    0.169904
     8  H    0.168438
     9  C   -0.118466
    10  H    0.051794
    11  H    0.051850
    12  H    0.050393
 Sum of ESP charges =  -0.00000

 Normal termination of Gaussian 16 at Thu Apr 21 16:33:44 2022.
