 Gaussian 16, Revision A.03,

 ---------------------------------------------------------------------
 #n B3LYP/6-311++G(d,p) Opt freq EmpiricalDispersion=GD3BJ IOp(6/33=2)
 ---------------------------------------------------------------------

 -----------
 MAA geo opt
 -----------
 Symbolic Z-matrix:
 Charge =  0 Multiplicity = 1

 SCF Done:  E(RB3LYP) =  -306.595377378     A.U. after   13 cycles
 SCF Done:  E(RB3LYP) =  -306.596975726     A.U. after   12 cycles
 SCF Done:  E(RB3LYP) =  -306.597213851     A.U. after   11 cycles
 SCF Done:  E(RB3LYP) =  -306.597050093     A.U. after   11 cycles
 SCF Done:  E(RB3LYP) =  -306.597379061     A.U. after   10 cycles
 SCF Done:  E(RB3LYP) =  -306.597399805     A.U. after   10 cycles
 SCF Done:  E(RB3LYP) =  -306.597402313     A.U. after    9 cycles
 SCF Done:  E(RB3LYP) =  -306.597402585     A.U. after    8 cycles
 Optimization completed.
    -- Stationary point found.
 Normal termination of Gaussian 16 at Thu Apr 21 16:30:56 2022.

 ----------------------------------------------------------------------
 #N Geom=AllCheck Guess=TCheck SCRF=Check Test GenChk RB3LYP/6-311++G(d
 ,p) Freq
 ----------------------------------------------------------------------

 Structure from the checkpoint file:  "MAA-1.chk"
 -----------
 MAA geo opt
 -----------
 Charge =  0 Multiplicity = 1

 SCF Done:  E(RB3LYP) =  -306.597402585     A.U. after    1 cycles

  Exact polarizability:  59.991  -5.605  70.301  -0.002  -0.002  36.978
 Approx polarizability:  75.662 -14.472 113.780  -0.003  -0.004  52.184

                      1                      2                      3
                      A                      A                      A
 Frequencies --     61.6511               166.4547               271.0182
 Red. masses --      5.0241                 1.0369                 3.8427
 Frc consts  --      0.0113                 0.0169                 0.1663
 IR Inten    --      0.3687                 0.2968                 2.7689

                      4                      5                      6
                      A                      A                      A
 Frequencies --    353.3780               389.7622               513.9246
 Red. masses --      2.8174                 2.7869                 4.1960
 Frc consts  --      0.2073                 0.2494                 0.6530
 IR Inten    --     12.4228                 2.4851                17.2919

                      7                      8                      9
                      A                      A                      A
 Frequencies --    566.2492               581.1169               652.1941
 Red. masses --      1.1759                 4.2794                 1.2862
 Frc consts  --      0.2221                 0.8514                 0.3223
 IR Inten    --     84.7411                19.8480                22.3152

                     10                     11                     12
                      A                      A                      A
 Frequencies --    771.3402               838.1387               956.4147
 Red. masses --      3.6438                 2.7232                 1.9322
 Frc consts  --      1.2773                 1.1271                 1.0413
 IR Inten    --     14.2821                24.7668                 5.6910

                     13                     14                     15
                      A                      A                      A
 Frequencies --    983.1649              1022.8725              1072.9501
 Red. masses --      1.3298                 1.3991                 1.4900
 Frc consts  --      0.7573                 0.8625                 1.0106
 IR Inten    --     38.1519                24.5082                 0.1433

                     16                     17                     18
                      A                      A                      A
 Frequencies --   1140.1311              1269.4741              1377.9077
 Red. masses --      3.0050                 1.7047                 2.6371
 Frc consts  --      2.3015                 1.6186                 2.9499
 IR Inten    --    268.5538                 8.3692                54.2229

                     19                     20                     21
                      A                      A                      A
 Frequencies --   1419.6712              1443.0540              1473.2646
 Red. masses --      1.3660                 1.2284                 1.0424
 Frc consts  --      1.6221                 1.5071                 1.3330
 IR Inten    --      6.6502                 8.7408                 8.5627

                     22                     23                     24
                      A                      A                      A
 Frequencies --   1492.2204              1694.1829              1783.0764
 Red. masses --      1.0596                 5.2331                 9.5525
 Frc consts  --      1.3901                 8.8498                17.8941
 IR Inten    --     18.6286                21.8928               367.3538

                     25                     26                     27
                      A                      A                      A
 Frequencies --   3038.0951              3090.5448              3119.2842
 Red. masses --      1.0354                 1.0997                 1.1031
 Frc consts  --      5.6309                 6.1889                 6.3238
 IR Inten    --     12.9540                10.1705                13.7994

                     28                     29                     30
                      A                      A                      A
 Frequencies --   3147.6209              3242.5871              3774.9184
 Red. masses --      1.0615                 1.1151                 1.0647
 Frc consts  --      6.1966                 6.9078                 8.9391
 IR Inten    --      7.7607                 2.2463                83.0800

 - Thermochemistry -
 -------------------
 Temperature   298.150 Kelvin.  Pressure   1.00000 Atm.
 Atom     1 has atomic number  1 and mass   1.00783

 Molecular mass:    86.03678 amu.
 Principal axes and moments of inertia in atomic units:
                           1         2         3
     Eigenvalues --   335.73174 516.47293 841.15832
           X            0.99830   0.05835   0.00000
           Y           -0.05835   0.99830   0.00002
           Z            0.00000  -0.00002   1.00000
 This molecule is an asymmetric top.
 Rotational symmetry number  1.
 Rotational temperatures (Kelvin)      0.25799     0.16770     0.10297
 Rotational constants (GHZ):           5.37555     3.49436     2.14554
 Zero-point vibrational energy     249461.2 (Joules/Mol)
                                   59.62267 (Kcal/Mol)
 Warning -- explicit consideration of   8 degrees of freedom as
           vibrations may cause significant error
 Vibrational temperatures:     88.70   239.49   389.93   508.43   560.78
          (Kelvin)            739.42   814.71   836.10   938.36  1109.79
                             1205.89  1376.07  1414.56  1471.69  1543.74
                             1640.39  1826.49  1982.50  2042.59  2076.23
                             2119.70  2146.97  2437.55  2565.45  4371.14
                             4446.60  4487.95  4528.72  4665.36  5431.27

 Zero-point correction=                           0.095015 (Hartree/Particle)
 Thermal correction to Energy=                    0.101474
 Thermal correction to Enthalpy=                  0.102419
 Thermal correction to Gibbs Free Energy=         0.064739
 Sum of electronic and zero-point Energies=           -306.502388
 Sum of electronic and thermal Energies=              -306.495928
 Sum of electronic and thermal Enthalpies=            -306.494984
 Sum of electronic and thermal Free Energies=         -306.532664

                     E (Thermal)             CV                S
                      KCal/Mol        Cal/Mol-Kelvin    Cal/Mol-Kelvin
 Total                   63.676             22.633             79.304
 Electronic               0.000              0.000              0.000
 Translational            0.889              2.981             39.270
 Rotational               0.889              2.981             26.481
 Vibrational             61.899             16.671             13.554
 Vibration     1          0.597              1.973              4.404
 Vibration     2          0.624              1.884              2.475
 Vibration     3          0.675              1.727              1.590
 Vibration     4          0.730              1.568              1.151
 Vibration     5          0.758              1.492              1.001
 Vibration     6          0.869              1.219              0.624
 Vibration     7          0.922              1.104              0.512
 Vibration     8          0.938              1.072              0.483

                           ! Non-Optimized Parameters !
 Normal termination of Gaussian 16 at Thu Apr 21 16:31:15 2022.
 Gaussian 16:  ES64L-G16RevA.03 25-Dec-2016

 ----------------------------------------------------------------------
 #P B3LYP/6-311++G(d,p) Geom=Allcheck SCF=Tight EmpiricalDispersion=GD3
 BJ Pop=CHELPG SP IOp(6/33=2)
 ----------------------------------------------------------------------

 Structure from the checkpoint file:  "MAA-1.chk"
 -----------
 MAA geo opt
 -----------
 Charge =  0 Multiplicity = 1

                         Standard orientation:
 ---------------------------------------------------------------------
 Center     Atomic      Atomic             Coordinates (Angstroms)
 Number     Number       Type             X           Y           Z
 ---------------------------------------------------------------------
      1          1           0        2.497861    0.442349    0.000212
      2          8           0        1.611084    0.830319   -0.000231
      3          6           0        0.735327   -0.207166   -0.000018
      4          8           0        1.107728   -1.358056    0.000230
      5          6           0       -0.696084    0.203878   -0.000181
      6          6           0       -1.036754    1.495807    0.000183
      7          1           0       -2.078979    1.794623    0.000319
      8          1           0       -0.289965    2.278268    0.000455
      9          6           0       -1.683864   -0.928119   -0.000133
     10          1           0       -1.541032   -1.567929   -0.874646
     11          1           0       -1.544421   -1.564756    0.877281
     12          1           0       -2.705707   -0.547064   -0.002718
 ---------------------------------------------------------------------

 SCF Done:  E(RB3LYP) =  -306.597402585     A.U. after   13 cycles

 The electronic state is 1-A.
 Alpha  occ. eigenvalues --  -19.17825 -19.12347 -10.31486 -10.20720 -10.19121
 Alpha  occ. eigenvalues --  -10.17555  -1.12084  -1.03100  -0.82712  -0.70871
 Alpha  occ. eigenvalues --   -0.66849  -0.57388  -0.50799  -0.49698  -0.46747
 Alpha  occ. eigenvalues --   -0.44939  -0.42404  -0.41815  -0.38863  -0.38519
 Alpha  occ. eigenvalues --   -0.33639  -0.29370  -0.28673
 Alpha virt. eigenvalues --   -0.06339  -0.01092   0.00008   0.01715   0.03164
 Alpha virt. eigenvalues --    0.03403   0.04852   0.06179   0.06228   0.07608
 Alpha virt. eigenvalues --    0.08256   0.08529   0.09563   0.10660   0.11433

 Mulliken charges:
               1
     1  H    0.289306
     2  O   -0.208010
     3  C   -0.076063
     4  O   -0.291723
     5  C    0.664147
     6  C   -0.538999
     7  H    0.131876
     8  H    0.177341
     9  C   -0.628955
    10  H    0.170903
    11  H    0.170914
    12  H    0.139262
 Sum of Mulliken charges =  -0.00000

 Dipole moment (field-independent basis, Debye):
    X=             -0.7873    Y=              1.5755    Z=              0.0009  Tot=              1.7613
 Quadrupole moment (field-independent basis, Debye-Ang):
   XX=            -29.9779   YY=            -39.3576   ZZ=            -36.9181
   XY=              1.8623   XZ=              0.0007   YZ=              0.0027

 ESP charges:
               1
     1  H    0.430805
     2  O   -0.638289
     3  C    0.728986
     4  O   -0.562562
     5  C    0.048815
     6  C   -0.364384
     7  H    0.163580
     8  H    0.169462
     9  C   -0.176300
    10  H    0.067979
    11  H    0.067848
    12  H    0.064059
 Sum of ESP charges =  -0.00000

 Normal termination of Gaussian 16 at Thu Apr 21 16:32:01 2022.
