 Gaussian 16, Revision A.03,

 ---------------------------------------------------------------------
 #n B3LYP/6-311++G(d,p) Opt freq EmpiricalDispersion=GD3BJ IOp(6/33=2)
 ---------------------------------------------------------------------

 -----------------
 MAA1-DMA1 geo opt
 -----------------
 Symbolic Z-matrix:
 Charge =  0 Multiplicity = 1

 SCF Done:  E(RB3LYP) =  -825.799100417     A.U. after   15 cycles
 SCF Done:  E(RB3LYP) =  -825.834969297     A.U. after   14 cycles
 SCF Done:  E(RB3LYP) =  -825.825696478     A.U. after   16 cycles
 SCF Done:  E(RB3LYP) =  -825.854023626     A.U. after   14 cycles
 SCF Done:  E(RB3LYP) =  -825.856927103     A.U. after   15 cycles
 SCF Done:  E(RB3LYP) =  -825.854203857     A.U. after   15 cycles
 SCF Done:  E(RB3LYP) =  -825.861259295     A.U. after   13 cycles
 SCF Done:  E(RB3LYP) =  -825.863631571     A.U. after   16 cycles
 SCF Done:  E(RB3LYP) =  -825.865593315     A.U. after   13 cycles
 SCF Done:  E(RB3LYP) =  -825.866800932     A.U. after   13 cycles
 SCF Done:  E(RB3LYP) =  -825.868347745     A.U. after    9 cycles
 SCF Done:  E(RB3LYP) =  -825.868349047     A.U. after    9 cycles
 SCF Done:  E(RB3LYP) =  -825.868349813     A.U. after   10 cycles
 SCF Done:  E(RB3LYP) =  -825.868350358     A.U. after    9 cycles
 SCF Done:  E(RB3LYP) =  -825.868350471     A.U. after    9 cycles
 SCF Done:  E(RB3LYP) =  -825.868350476     A.U. after    8 cycles
 SCF Done:  E(RB3LYP) =  -825.868350468     A.U. after    8 cycles
 SCF Done:  E(RB3LYP) =  -825.868350469     A.U. after    7 cycles
 Optimization completed.
    -- Stationary point found.
 Normal termination of Gaussian 16 at Thu Apr 21 15:22:05 2022.

 ----------------------------------------------------------------------
 #N Geom=AllCheck Guess=TCheck SCRF=Check Test GenChk RB3LYP/6-311++G(d
 ,p) Freq
 ----------------------------------------------------------------------

 Structure from the checkpoint file:  "MAA1-DMA1-5.chk"
 -----------------
 MAA1-DMA1 geo opt
 -----------------
 Charge =  0 Multiplicity = 1

 SCF Done:  E(RB3LYP) =  -825.868350469     A.U. after    1 cycles

  Exact polarizability: 188.999   4.939 164.907  -9.996  -1.582 159.315
 Approx polarizability: 250.512  -1.835 208.277 -24.382  -1.968 261.712

                      1                      2                      3
                      A                      A                      A
 Frequencies --     14.1937                20.2296                29.1276
 Red. masses --      4.0981                 3.6336                 3.8184
 Frc consts  --      0.0005                 0.0009                 0.0019
 IR Inten    --      0.8384                 0.3409                 0.7702

                      4                      5                      6
                      A                      A                      A
 Frequencies --     34.0437                42.3009                52.6194
 Red. masses --      3.6195                 2.8127                 3.9117
 Frc consts  --      0.0025                 0.0030                 0.0064
 IR Inten    --      1.0924                 0.3373                 1.1093

                      7                      8                      9
                      A                      A                      A
 Frequencies --     55.3542                59.1397                71.6818
 Red. masses --      3.6584                 6.3844                 6.4634
 Frc consts  --      0.0066                 0.0132                 0.0196
 IR Inten    --      1.6202                 1.1094                 1.5376

                     10                     11                     12
                      A                      A                      A
 Frequencies --     98.8179               130.0916               166.4212
 Red. masses --      5.0590                 2.6491                 6.7312
 Frc consts  --      0.0291                 0.0264                 0.1098
 IR Inten    --      1.0673                 1.2886                12.3293

                     13                     14                     15
                      A                      A                      A
 Frequencies --    186.6377               192.5557               196.9000
 Red. masses --      1.0426                 2.9545                 1.0618
 Frc consts  --      0.0214                 0.0645                 0.0243
 IR Inten    --      0.4508                 3.0123                 1.2345

                     16                     17                     18
                      A                      A                      A
 Frequencies --    234.4701               243.5843               275.8814
 Red. masses --      2.2286                 1.0565                 1.3962
 Frc consts  --      0.0722                 0.0369                 0.0626
 IR Inten    --      0.8296                 0.3031                 2.2359

                     19                     20                     21
                      A                      A                      A
 Frequencies --    297.0950               301.5011               361.0506
 Red. masses --      3.8720                 3.3748                 3.0434
 Frc consts  --      0.2014                 0.1807                 0.2337
 IR Inten    --      7.9045                 2.9720                 6.9731

                     22                     23                     24
                      A                      A                      A
 Frequencies --    374.2526               375.7707               392.0576
 Red. masses --      3.3228                 3.4571                 2.6429
 Frc consts  --      0.2742                 0.2876                 0.2393
 IR Inten    --      0.9141                 6.6494                 2.5791

                     25                     26                     27
                      A                      A                      A
 Frequencies --    392.3210               411.7858               442.9608
 Red. masses --      2.4605                 2.5964                 2.7759
 Frc consts  --      0.2231                 0.2594                 0.3209
 IR Inten    --      3.9357                12.9962                 3.1436

                     28                     29                     30
                      A                      A                      A
 Frequencies --    469.2047               529.2557               542.5372
 Red. masses --      2.7384                 5.2645                 4.6198
 Frc consts  --      0.3552                 0.8688                 0.8012
 IR Inten    --      5.8582                14.6075                 4.9900

                     31                     32                     33
                      A                      A                      A
 Frequencies --    587.9219               613.8230               653.3510
 Red. masses --      3.9469                 3.7873                 1.2933
 Frc consts  --      0.8038                 0.8408                 0.3253
 IR Inten    --      7.7912                 0.1797                12.0159

                     34                     35                     36
                      A                      A                      A
 Frequencies --    660.5466               787.9551               793.5811
 Red. masses --      1.3385                 1.4021                 4.4795
 Frc consts  --      0.3441                 0.5129                 1.6621
 IR Inten    --      1.9227                 4.4234                14.9701

                     37                     38                     39
                      A                      A                      A
 Frequencies --    829.6867               838.9234               860.9602
 Red. masses --      1.7545                 2.9281                 3.9736
 Frc consts  --      0.7116                 1.2142                 1.7354
 IR Inten    --      2.9252                22.6236                22.3249

                     40                     41                     42
                      A                      A                      A
 Frequencies --    867.1176               880.9797               944.7466
 Red. masses --      1.3877                 2.8540                 2.5962
 Frc consts  --      0.6147                 1.3051                 1.3653
 IR Inten    --    106.9497                 8.5037                25.9636

                     43                     44                     45
                      A                      A                      A
 Frequencies --    952.5332               976.5863               981.1772
 Red. masses --      1.8298                 1.3442                 1.3361
 Frc consts  --      0.9782                 0.7553                 0.7579
 IR Inten    --      3.0830                31.8070                32.0585

                     46                     47                     48
                      A                      A                      A
 Frequencies --    994.0090              1028.4663              1034.7895
 Red. masses --      2.4232                 1.3830                 1.7061
 Frc consts  --      1.4107                 0.8619                 1.0764
 IR Inten    --     28.0055                14.9846                24.7362

                     49                     50                     51
                      A                      A                      A
 Frequencies --   1045.8452              1061.3764              1071.1990
 Red. masses --      2.4764                 1.7538                 1.4907
 Frc consts  --      1.5959                 1.1641                 1.0078
 IR Inten    --     21.2369                21.1296                 0.1035

                     52                     53                     54
                      A                      A                      A
 Frequencies --   1072.2110              1075.8044              1099.1249
 Red. masses --      2.6348                 1.4952                 1.5410
 Frc consts  --      1.7847                 1.0196                 1.0968
 IR Inten    --     14.8736                 0.5846                 7.4892

                     55                     56                     57
                      A                      A                      A
 Frequencies --   1118.8615              1184.0170              1196.9806
 Red. masses --      1.3131                 1.5615                 2.9621
 Frc consts  --      0.9685                 1.2898                 2.5005
 IR Inten    --      7.0185                15.6117               271.5951

                     58                     59                     60
                      A                      A                      A
 Frequencies --   1211.9957              1235.4434              1294.8058
 Red. masses --      4.1958                 2.1867                 2.2776
 Frc consts  --      3.6314                 1.9665                 2.2498
 IR Inten    --    229.7587                26.0218               107.1684

                     61                     62                     63
                      A                      A                      A
 Frequencies --   1300.4631              1303.9450              1342.5986
 Red. masses --      2.3141                 1.4473                 1.2100
 Frc consts  --      2.3059                 1.4498                 1.2851
 IR Inten    --     17.8322                16.9693                18.8426

                     64                     65                     66
                      A                      A                      A
 Frequencies --   1346.2099              1377.4412              1410.6107
 Red. masses --      1.9452                 1.7346                 1.1962
 Frc consts  --      2.0770                 1.9391                 1.4024
 IR Inten    --    111.1502                56.6086                13.1118

                     67                     68                     69
                      A                      A                      A
 Frequencies --   1411.9374              1416.5894              1430.6510
 Red. masses --      1.2937                 1.7529                 1.3714
 Frc consts  --      1.5195                 2.0724                 1.6538
 IR Inten    --      3.7755                29.3609                11.5845

                     70                     71                     72
                      A                      A                      A
 Frequencies --   1434.0374              1439.6287              1446.6527
 Red. masses --      1.2580                 1.2243                 1.1779
 Frc consts  --      1.5242                 1.4950                 1.4524
 IR Inten    --     22.6936                23.6659                 3.7206

                     73                     74                     75
                      A                      A                      A
 Frequencies --   1472.9486              1475.9716              1476.2362
 Red. masses --      1.1844                 1.0462                 1.0436
 Frc consts  --      1.5140                 1.3428                 1.3400
 IR Inten    --      0.7931                 7.6014                 6.5730

                     76                     77                     78
                      A                      A                      A
 Frequencies --   1483.4986              1492.2281              1492.9299
 Red. masses --      1.0456                 1.0861                 1.0695
 Frc consts  --      1.3557                 1.4249                 1.4045
 IR Inten    --      6.1125                 6.1653                29.4099

                     79                     80                     81
                      A                      A                      A
 Frequencies --   1497.9483              1499.6385              1500.5103
 Red. masses --      1.0628                 1.0567                 1.0588
 Frc consts  --      1.4050                 1.4001                 1.4046
 IR Inten    --      7.8292                 1.6484                48.8994

                     82                     83                     84
                      A                      A                      A
 Frequencies --   1513.8165              1517.8522              1687.1166
 Red. masses --      1.0582                 1.0852                 5.9465
 Frc consts  --      1.4288                 1.4731                 9.9725
 IR Inten    --      9.9168                 8.9487               117.4508

                     85                     86                     87
                      A                      A                      A
 Frequencies --   1693.1454              1721.6072              1762.0108
 Red. masses --      5.6895                 8.2980                 8.1699
 Frc consts  --      9.6097                14.4907                14.9446
 IR Inten    --     66.8106               179.9812               308.7034

                     88                     89                     90
                      A                      A                      A
 Frequencies --   2917.9982              2930.7375              2978.3557
 Red. masses --      1.0609                 1.0612                 1.0703
 Frc consts  --      5.3224                 5.3702                 5.5937
 IR Inten    --     60.6794               103.7980                21.3724

                     91                     92                     93
                      A                      A                      A
 Frequencies --   3034.7672              3037.3042              3056.0203
 Red. masses --      1.0351                 1.0352                 1.0700
 Frc consts  --      5.6166                 5.6266                 5.8876
 IR Inten    --     17.3534                14.3540                35.1107

                     94                     95                     96
                      A                      A                      A
 Frequencies --   3065.8017              3073.3525              3087.7308
 Red. masses --      1.0729                 1.0911                 1.0997
 Frc consts  --      5.9415                 6.0720                 6.1773
 IR Inten    --     35.8371                12.6992                11.4643

                     97                     98                     99
                      A                      A                      A
 Frequencies --   3094.3914              3097.8307              3099.0736
 Red. masses --      1.1002                 1.0663                 1.0945
 Frc consts  --      6.2067                 6.0288                 6.1932
 IR Inten    --      5.5927                28.0518                35.6844

                    100                    101                    102
                      A                      A                      A
 Frequencies --   3111.3639              3113.6415              3118.8589
 Red. masses --      1.1033                 1.1005                 1.1028
 Frc consts  --      6.2928                 6.2858                 6.3204
 IR Inten    --     20.8230                25.1812                13.8476

                    103                    104                    105
                      A                      A                      A
 Frequencies --   3143.9513              3148.7579              3153.8274
 Red. masses --      1.0597                 1.0612                 1.1103
 Frc consts  --      6.1716                 6.1993                 6.5067
 IR Inten    --      9.5939                 8.8293                11.1095

                    106                    107                    108
                      A                      A                      A
 Frequencies --   3236.5720              3243.0673              3430.0643
 Red. masses --      1.1166                 1.1153                 1.0680
 Frc consts  --      6.8917                 6.9109                 7.4032
 IR Inten    --      2.7728                 2.7298               987.4107

 - Thermochemistry -
 -------------------
 Temperature   298.150 Kelvin.  Pressure   1.00000 Atm.
 Atom     1 has atomic number  6 and mass  12.00000

 Molecular mass:   243.14706 amu.
 Principal axes and moments of inertia in atomic units:
                           1         2         3
     Eigenvalues --  4158.395675148.245177939.32824
           X            0.99894   0.04536  -0.00792
           Y           -0.04534   0.99896   0.00374
           Z            0.00808  -0.00338   0.99996
 This molecule is an asymmetric top.
 Rotational symmetry number  1.
 Warning -- assumption of classical behavior for rotation
           may cause significant error
 Rotational temperatures (Kelvin)      0.02083     0.01682     0.01091
 Rotational constants (GHZ):           0.43400     0.35055     0.22732
 Zero-point vibrational energy     843788.1 (Joules/Mol)
                                  201.67020 (Kcal/Mol)
 Warning -- explicit consideration of  32 degrees of freedom as
           vibrations may cause significant error
 Vibrational temperatures:     20.42    29.11    41.91    48.98    60.86
          (Kelvin)             75.71    79.64    85.09   103.13   142.18
                              187.17   239.44   268.53   277.04   283.30
                              337.35   350.46   396.93   427.45   433.79
                              519.47   538.47   540.65   564.08   564.46
                              592.47   637.32   675.08   761.48   780.59
                              845.89   883.15   940.03   950.38  1133.69
                             1141.79  1193.73  1207.02  1238.73  1247.59
                             1267.53  1359.28  1370.48  1405.09  1411.70
                             1430.16  1479.73  1488.83  1504.74  1527.08
                             1541.22  1542.67  1547.84  1581.40  1609.79
                             1703.54  1722.19  1743.79  1777.53  1862.94
                             1871.08  1876.09  1931.70  1936.90  1981.83
                             2029.55  2031.46  2038.16  2058.39  2063.26
                             2071.30  2081.41  2119.24  2123.59  2123.97
                             2134.42  2146.98  2147.99  2155.21  2157.65
                             2158.90  2178.04  2183.85  2427.38  2436.06
                             2477.01  2535.14  4198.35  4216.68  4285.19
                             4366.35  4370.00  4396.93  4411.00  4421.87
                             4442.56  4452.14  4457.09  4458.88  4476.56
                             4479.84  4487.34  4523.44  4530.36  4537.65
                             4656.71  4666.05  4935.10

 Zero-point correction=                           0.321382 (Hartree/Particle)
 Thermal correction to Energy=                    0.342562
 Thermal correction to Enthalpy=                  0.343506
 Thermal correction to Gibbs Free Energy=         0.266842
 Sum of electronic and zero-point Energies=           -825.546969
 Sum of electronic and thermal Energies=              -825.525789
 Sum of electronic and thermal Enthalpies=            -825.524844
 Sum of electronic and thermal Free Energies=         -825.601509

                     E (Thermal)             CV                S
                      KCal/Mol        Cal/Mol-Kelvin    Cal/Mol-Kelvin
 Total                  214.961             73.934            161.353
 Electronic               0.000              0.000              0.000
 Translational            0.889              2.981             42.366
 Rotational               0.889              2.981             33.496
 Vibrational            213.183             67.973             85.490
 Vibration     1          0.593              1.986              7.315
 Vibration     2          0.593              1.986              6.612
 Vibration     3          0.593              1.984              5.888
 Vibration     4          0.594              1.983              5.579
 Vibration     5          0.595              1.980              5.148
 Vibration     6          0.596              1.977              4.716
 Vibration     7          0.596              1.975              4.616
 Vibration     8          0.597              1.974              4.486
 Vibration     9          0.598              1.968              4.107
 Vibration    10          0.604              1.950              3.478
 Vibration    11          0.612              1.923              2.945
 Vibration    12          0.624              1.884              2.476
 Vibration    13          0.632              1.858              2.261
 Vibration    14          0.635              1.850              2.203
 Vibration    15          0.636              1.844              2.162
 Vibration    16          0.654              1.788              1.844
 Vibration    17          0.659              1.773              1.777
 Vibration    18          0.678              1.718              1.559
 Vibration    19          0.691              1.679              1.433
 Vibration    20          0.693              1.671              1.409
 Vibration    21          0.735              1.552              1.118
 Vibration    22          0.745              1.525              1.062
 Vibration    23          0.747              1.522              1.056
 Vibration    24          0.759              1.487              0.992
 Vibration    25          0.760              1.487              0.991
 Vibration    26          0.776              1.445              0.920
 Vibration    27          0.803              1.376              0.817
 Vibration    28          0.826              1.318              0.740
 Vibration    29          0.884              1.185              0.589
 Vibration    30          0.898              1.156              0.560
 Vibration    31          0.945              1.058              0.471
 Vibration    32          0.973              1.003              0.426

 Optimization completed.
    -- Stationary point found.
 Normal termination of Gaussian 16 at Thu Apr 21 15:30:55 2022.
 Gaussian 16:  ES64L-G16RevA.03 25-Dec-2016

 ----------------------------------------------------------------------
 #P B3LYP/6-311++G(d,p) Geom=Allcheck SCF=Tight EmpiricalDispersion=GD3
 BJ Pop=CHELPG SP IOp(6/33=2)
 ----------------------------------------------------------------------

 Structure from the checkpoint file:  "MAA1-DMA1-5.chk"
 -----------------
 MAA1-DMA1 geo opt
 -----------------
 Charge =  0 Multiplicity = 1

                         Standard orientation:
 ---------------------------------------------------------------------
 Center     Atomic      Atomic             Coordinates (Angstroms)
 Number     Number       Type             X           Y           Z
 ---------------------------------------------------------------------
      1          6           0       -4.051850    1.363745    0.846052
      2          6           0       -3.132845    1.319829   -0.343214
      3          6           0       -3.549730    1.380252   -1.610076
      4          6           0       -1.659116    1.194436   -0.105254
      5          8           0       -0.817583    1.144212   -0.980888
      6          8           0       -1.358792    1.134400    1.199617
      7          1           0       -3.810638    2.207885    1.497105
      8          1           0       -3.947939    0.461792    1.454682
      9          1           0       -5.090807    1.453551    0.524846
     10          1           0       -4.602509    1.467875   -1.852343
     11          1           0       -2.837027    1.343146   -2.424511
     12          1           0       -0.386195    1.006716    1.292807
     13          6           0        1.986307    3.051291    0.228759
     14          6           0        2.667867    1.778074   -0.182979
     15          6           0        3.700055    1.719117   -1.028905
     16          6           0        2.111813    0.537221    0.420625
     17          8           0        1.279416    0.547942    1.314944
     18          8           0        2.607461   -0.595064   -0.087496
     19          6           0        1.981308   -1.830040    0.342118
     20          6           0        0.759618   -2.119138   -0.530364
     21          7           0       -0.050002   -3.179954    0.063635
     22          6           0       -0.927578   -2.666899    1.111490
     23          6           0       -0.812969   -3.913182   -0.937763
     24          1           0        0.945008    3.040806   -0.104146
     25          1           0        2.487050    3.914382   -0.211210
     26          1           0        1.979734    3.159594    1.315935
     27          1           0        4.114406    2.622625   -1.461444
     28          1           0        4.149328    0.775488   -1.307349
     29          1           0        1.713630   -1.747434    1.393145
     30          1           0        2.745564   -2.594670    0.219385
     31          1           0        1.102954   -2.445112   -1.514648
     32          1           0        0.187057   -1.191521   -0.683164
     33          1           0       -0.354285   -2.116131    1.857895
     34          1           0       -1.425592   -3.499670    1.613027
     35          1           0       -1.700364   -1.986119    0.712758
     36          1           0       -1.357210   -4.729109   -0.456262
     37          1           0       -0.136582   -4.346374   -1.677674
     38          1           0       -1.546863   -3.278203   -1.466630
 ---------------------------------------------------------------------

 SCF Done:  E(RB3LYP) =  -825.868350469     A.U. after   15 cycles

 The electronic state is 1-A.
 Alpha  occ. eigenvalues --  -19.17877 -19.15462 -19.12684 -19.10461 -14.31027
 Alpha  occ. eigenvalues --  -10.31859 -10.30070 -10.23048 -10.20321 -10.19604
 Alpha  occ. eigenvalues --  -10.19561 -10.18827 -10.18716 -10.18541 -10.17941
 Alpha  occ. eigenvalues --  -10.17034 -10.17017  -1.12419  -1.10153  -1.03527
 Alpha  occ. eigenvalues --   -1.01102  -0.92803  -0.82691  -0.81544  -0.76859
 Alpha  occ. eigenvalues --   -0.70832  -0.70366  -0.69885  -0.68401  -0.66003
 Alpha  occ. eigenvalues --   -0.62208  -0.59090  -0.56397  -0.55540  -0.51366
 Alpha  occ. eigenvalues --   -0.50616  -0.49643  -0.49259  -0.48165  -0.47921
 Alpha  occ. eigenvalues --   -0.46585  -0.45610  -0.45207  -0.44578  -0.44149
 Alpha  occ. eigenvalues --   -0.43125  -0.41812  -0.41232  -0.40949  -0.39889
 Alpha  occ. eigenvalues --   -0.39556  -0.39020  -0.38751  -0.38216  -0.37755
 Alpha  occ. eigenvalues --   -0.37201  -0.36894  -0.36184  -0.34587  -0.32196
 Alpha  occ. eigenvalues --   -0.31890  -0.30061  -0.28130  -0.27755  -0.27360
 Alpha  occ. eigenvalues --   -0.22315
 Alpha virt. eigenvalues --   -0.06305  -0.05183  -0.00936  -0.00093   0.00131
 Alpha virt. eigenvalues --    0.01040   0.01277   0.01962   0.02280   0.02646
 Alpha virt. eigenvalues --    0.03012   0.03642   0.03955   0.04173   0.04662

 Mulliken charges:
               1
     1  C   -0.597502
     2  C    0.633996
     3  C   -0.603570
     4  C   -0.386620
     5  O   -0.191003
     6  O   -0.180982
     7  H    0.174923
     8  H    0.171553
     9  H    0.147817
    10  H    0.137228
    11  H    0.193688
    12  H    0.457900
    13  C   -0.590287
    14  C    0.933251
    15  C   -0.630577
    16  C   -0.371695
    17  O   -0.271449
    18  O    0.015934
    19  C   -0.209316
    20  C   -0.647307
    21  N    0.134133
    22  C   -0.390172
    23  C   -0.285449
    24  H    0.191646
    25  H    0.152539
    26  H    0.168766
    27  H    0.133439
    28  H    0.193789
    29  H    0.225382
    30  H    0.186185
    31  H    0.129151
    32  H    0.177483
    33  H    0.118674
    34  H    0.166698
    35  H    0.120525
    36  H    0.127430
    37  H    0.136107
    38  H    0.127691
 Sum of Mulliken charges =  -0.00000

 Dipole moment (field-independent basis, Debye):
    X=             -0.0657    Y=             -0.1650    Z=             -0.7005  Tot=              0.7227
 Quadrupole moment (field-independent basis, Debye-Ang):
   XX=            -92.6146   YY=           -100.7070   ZZ=           -107.3041
   XY=              2.5898   XZ=             -1.5279   YZ=              0.5983

 ESP charges:
               1
     1  C   -0.031979
     2  C   -0.076240
     3  C   -0.294636
     4  C    0.818496
     5  O   -0.617499
     6  O   -0.626816
     7  H    0.030690
     8  H    0.023793
     9  H    0.031965
    10  H    0.145657
    11  H    0.128995
    12  H    0.429431
    13  C   -0.047229
    14  C    0.004369
    15  C   -0.319119
    16  C    0.651668
    17  O   -0.508369
    18  O   -0.390662
    19  C    0.073475
    20  C    0.189959
    21  N   -0.501192
    22  C   -0.033633
    23  C   -0.007521
    24  H    0.037885
    25  H    0.040640
    26  H    0.004595
    27  H    0.154813
    28  H    0.131614
    29  H    0.076021
    30  H    0.064631
    31  H    0.048645
    32  H    0.044515
    33  H    0.050882
    34  H    0.076622
    35  H    0.056068
    36  H    0.070837
    37  H    0.056965
    38  H    0.011665
 Sum of ESP charges =  -0.00000

 Normal termination of Gaussian 16 at Thu Apr 21 15:49:47 2022.
