 Gaussian 16, Revision A.03,

 ---------------------------------------------------------------------
 #n B3LYP/6-311++G(d,p) Opt freq EmpiricalDispersion=GD3BJ IOp(6/33=2)
 ---------------------------------------------------------------------

 -----------------
 MAA1-DMA1 geo opt
 -----------------
 Symbolic Z-matrix:
 Charge =  0 Multiplicity = 1

 SCF Done:  E(RB3LYP) =  -825.807302086     A.U. after   15 cycles
 SCF Done:  E(RB3LYP) =  -825.838902110     A.U. after   13 cycles
 SCF Done:  E(RB3LYP) =  -825.854548136     A.U. after   14 cycles
 SCF Done:  E(RB3LYP) =  -825.858553371     A.U. after   14 cycles
 SCF Done:  E(RB3LYP) =  -825.863150696     A.U. after   15 cycles
 SCF Done:  E(RB3LYP) =  -825.865272995     A.U. after   15 cycles
 SCF Done:  E(RB3LYP) =  -825.867025800     A.U. after   12 cycles
 SCF Done:  E(RB3LYP) =  -825.867655308     A.U. after   12 cycles
 SCF Done:  E(RB3LYP) =  -825.867643793     A.U. after   12 cycles
 SCF Done:  E(RB3LYP) =  -825.867959744     A.U. after   12 cycles
 SCF Done:  E(RB3LYP) =  -825.868902972     A.U. after   11 cycles
 SCF Done:  E(RB3LYP) =  -825.868905390     A.U. after   10 cycles
 SCF Done:  E(RB3LYP) =  -825.868906468     A.U. after    9 cycles
 SCF Done:  E(RB3LYP) =  -825.868907674     A.U. after    9 cycles
 SCF Done:  E(RB3LYP) =  -825.868908214     A.U. after    9 cycles
 SCF Done:  E(RB3LYP) =  -825.868908615     A.U. after    8 cycles
 SCF Done:  E(RB3LYP) =  -825.868908789     A.U. after    8 cycles
 SCF Done:  E(RB3LYP) =  -825.868908827     A.U. after    7 cycles
 Optimization completed.
    -- Stationary point found.
 Normal termination of Gaussian 16 at Thu Apr 21 11:10:18 2022.

 ----------------------------------------------------------------------
 #N Geom=AllCheck Guess=TCheck SCRF=Check Test GenChk RB3LYP/6-311++G(d
 ,p) Freq
 ----------------------------------------------------------------------

 Structure from the checkpoint file:  "MAA1-DMA1-3.chk"
 -----------------
 MAA1-DMA1 geo opt
 -----------------
 Charge =  0 Multiplicity = 1

 SCF Done:  E(RB3LYP) =  -825.868908827     A.U. after    1 cycles

  Exact polarizability: 199.665   9.258 167.023   6.224  14.791 150.870
 Approx polarizability: 247.014   6.608 228.846  11.688  34.503 241.160

                      1                      2                      3
                      A                      A                      A
 Frequencies --     14.2460                24.1591                37.2713
 Red. masses --      3.8364                 3.6261                 3.1632
 Frc consts  --      0.0005                 0.0012                 0.0026
 IR Inten    --      0.8093                 0.2865                 0.2081

                      4                      5                      6
                      A                      A                      A
 Frequencies --     44.3847                46.8485                69.5800
 Red. masses --      2.8335                 4.1559                 4.1088
 Frc consts  --      0.0033                 0.0054                 0.0117
 IR Inten    --      1.2434                 1.2708                 0.4819

                      7                      8                      9
                      A                      A                      A
 Frequencies --     70.8210                80.4763                94.6012
 Red. masses --      4.0737                 5.6988                 7.6476
 Frc consts  --      0.0120                 0.0217                 0.0403
 IR Inten    --      1.1025                 1.0793                 0.1471

                     10                     11                     12
                      A                      A                      A
 Frequencies --     99.8563               102.4646               123.6440
 Red. masses --      7.4893                 4.8891                 2.8224
 Frc consts  --      0.0440                 0.0302                 0.0254
 IR Inten    --      2.9985                 5.2270                 0.6224

                     13                     14                     15
                      A                      A                      A
 Frequencies --    187.4266               189.6741               202.3005
 Red. masses --      1.0365                 1.0440                 2.8826
 Frc consts  --      0.0215                 0.0221                 0.0695
 IR Inten    --      0.4291                 0.1935                 2.1394

                     16                     17                     18
                      A                      A                      A
 Frequencies --    219.9993               258.6260               266.3635
 Red. masses --      2.7222                 1.0912                 1.6415
 Frc consts  --      0.0776                 0.0430                 0.0686
 IR Inten    --      1.8770                 0.1497                 0.2897

                     19                     20                     21
                      A                      A                      A
 Frequencies --    282.7583               295.7197               366.9841
 Red. masses --      1.8349                 3.9816                 2.9976
 Frc consts  --      0.0864                 0.2051                 0.2379
 IR Inten    --      6.9844                 7.8196                 3.2803

                     22                     23                     24
                      A                      A                      A
 Frequencies --    376.6462               378.9864               389.8301
 Red. masses --      3.2103                 2.8038                 2.7818
 Frc consts  --      0.2683                 0.2373                 0.2491
 IR Inten    --      2.2700                14.2825                 2.0712

                     25                     26                     27
                      A                      A                      A
 Frequencies --    396.0003               406.2872               445.9982
 Red. masses --      2.9884                 2.6239                 3.0547
 Frc consts  --      0.2761                 0.2552                 0.3580
 IR Inten    --      1.8700                 2.3586                 1.6964

                     28                     29                     30
                      A                      A                      A
 Frequencies --    467.3318               529.7558               548.8862
 Red. masses --      2.6693                 5.1169                 4.8422
 Frc consts  --      0.3435                 0.8461                 0.8595
 IR Inten    --      4.9301                 7.7473                28.3228

                     31                     32                     33
                      A                      A                      A
 Frequencies --    587.4998               614.0588               662.4180
 Red. masses --      3.9519                 3.6389                 1.3300
 Frc consts  --      0.8037                 0.8084                 0.3439
 IR Inten    --      9.4266                 3.1973                 4.0936

                     34                     35                     36
                      A                      A                      A
 Frequencies --    665.5950               794.6798               807.1618
 Red. masses --      1.3507                 4.3608                 1.4567
 Frc consts  --      0.3526                 1.6226                 0.5592
 IR Inten    --      8.2002                31.6410                 2.5142

                     37                     38                     39
                      A                      A                      A
 Frequencies --    833.2412               836.2482               859.0155
 Red. masses --      2.6551                 2.3131                 2.7655
 Frc consts  --      1.0861                 0.9531                 1.2023
 IR Inten    --     13.6471                 5.9061                 6.2036

                     40                     41                     42
                      A                      A                      A
 Frequencies --    865.9995               899.6354               945.7399
 Red. masses --      4.0410                 1.1430                 2.1772
 Frc consts  --      1.7855                 0.5450                 1.1473
 IR Inten    --     19.2362               112.8269                14.9576

                     43                     44                     45
                      A                      A                      A
 Frequencies --    952.8313               980.0212               986.8314
 Red. masses --      1.8253                 1.3364                 1.3320
 Frc consts  --      0.9764                 0.7562                 0.7643
 IR Inten    --      4.1581                33.5076                34.9733

                     46                     47                     48
                      A                      A                      A
 Frequencies --    997.9325              1028.5466              1031.1768
 Red. masses --      4.1857                 1.3827                 1.4063
 Frc consts  --      2.4560                 0.8618                 0.8811
 IR Inten    --     26.7819                15.5003                16.6512

                     49                     50                     51
                      A                      A                      A
 Frequencies --   1045.0256              1063.0364              1071.1609
 Red. masses --      2.7438                 1.6277                 1.4902
 Frc consts  --      1.7655                 1.0837                 1.0074
 IR Inten    --     23.1247                17.3689                 0.0841

                     52                     53                     54
                      A                      A                      A
 Frequencies --   1072.0667              1075.8575              1115.0037
 Red. masses --      1.4905                 2.4049                 1.5676
 Frc consts  --      1.0093                 1.6400                 1.1483
 IR Inten    --      0.1633                15.5693                 8.0006

                     55                     56                     57
                      A                      A                      A
 Frequencies --   1119.7720              1188.8647              1209.1280
 Red. masses --      1.2959                 1.6692                 3.0795
 Frc consts  --      0.9573                 1.3900                 2.6526
 IR Inten    --      6.4552                 6.3394               114.6238

                     58                     59                     60
                      A                      A                      A
 Frequencies --   1215.7210              1233.0762              1290.9221
 Red. masses --      3.3322                 2.3795                 2.1449
 Frc consts  --      2.9017                 2.1317                 2.1060
 IR Inten    --    377.9966                86.3160               116.9898

                     61                     62                     63
                      A                      A                      A
 Frequencies --   1299.2802              1305.0964              1328.5315
 Red. masses --      2.0302                 1.7710                 2.6379
 Frc consts  --      2.0193                 1.7773                 2.7432
 IR Inten    --      4.6299                 3.6533               229.4634

                     64                     65                     66
                      A                      A                      A
 Frequencies --   1342.8535              1376.8146              1410.3959
 Red. masses --      1.2371                 1.4540                 1.1774
 Frc consts  --      1.3144                 1.6239                 1.3799
 IR Inten    --     79.4317                19.1390                10.8781

                     67                     68                     69
                      A                      A                      A
 Frequencies --   1412.2665              1414.3300              1434.1339
 Red. masses --      1.2216                 1.8021                 1.2603
 Frc consts  --      1.4355                 2.1239                 1.5273
 IR Inten    --     10.5435                18.7287                23.9324

                     70                     71                     72
                      A                      A                      A
 Frequencies --   1434.8947              1437.4181              1449.3878
 Red. masses --      1.2739                 1.2681                 1.2009
 Frc consts  --      1.5454                 1.5437                 1.4864
 IR Inten    --      2.7140                17.9641                 1.8251

                     73                     74                     75
                      A                      A                      A
 Frequencies --   1474.5482              1476.1258              1477.3787
 Red. masses --      1.1821                 1.0439                 1.0432
 Frc consts  --      1.5143                 1.3402                 1.3416
 IR Inten    --      0.8141                 7.5801                 9.0955

                     76                     77                     78
                      A                      A                      A
 Frequencies --   1486.8057              1493.2320              1493.5436
 Red. masses --      1.0461                 1.0653                 1.0588
 Frc consts  --      1.3624                 1.3995                 1.3916
 IR Inten    --      7.4361                33.4408                33.4531

                     79                     80                     81
                      A                      A                      A
 Frequencies --   1496.1465              1505.0675              1510.5651
 Red. masses --      1.0701                 1.0453                 1.0853
 Frc consts  --      1.4114                 1.3950                 1.4591
 IR Inten    --      9.0074                15.2786                 8.0408

                     82                     83                     84
                      A                      A                      A
 Frequencies --   1515.3492              1523.3928              1689.0388
 Red. masses --      1.0588                 1.0928                 5.9766
 Frc consts  --      1.4325                 1.4942                10.0459
 IR Inten    --     11.6061                16.9060               105.5356

                     85                     86                     87
                      A                      A                      A
 Frequencies --   1693.0592              1736.1007              1762.5698
 Red. masses --      5.7262                 8.7164                 8.6764
 Frc consts  --      9.6707                15.4788                15.8812
 IR Inten    --     66.2827               137.6984               312.1783

                     88                     89                     90
                      A                      A                      A
 Frequencies --   2909.3402              2918.3619              2935.3220
 Red. masses --      1.0616                 1.0628                 1.0705
 Frc consts  --      5.2942                 5.3332                 5.4346
 IR Inten    --     61.9053                86.1011                77.5631

                     91                     92                     93
                      A                      A                      A
 Frequencies --   3034.7530              3037.0708              3055.7905
 Red. masses --      1.0351                 1.0353                 1.0722
 Frc consts  --      5.6165                 5.6263                 5.8987
 IR Inten    --     17.6166                16.4263                20.9601

                     94                     95                     96
                      A                      A                      A
 Frequencies --   3060.1555              3073.6239              3087.8102
 Red. masses --      1.0847                 1.0734                 1.0997
 Frc consts  --      5.9847                 5.9745                 6.1775
 IR Inten    --     40.4376                25.0504                11.6516

                     97                     98                     99
                      A                      A                      A
 Frequencies --   3090.2509              3090.5157              3099.4990
 Red. masses --      1.0996                 1.0585                 1.1033
 Frc consts  --      6.1870                 5.9566                 6.2451
 IR Inten    --     10.7661                22.9835                31.5420

                    100                    101                    102
                      A                      A                      A
 Frequencies --   3111.1479              3114.9939              3129.5095
 Red. masses --      1.1033                 1.1031                 1.0998
 Frc consts  --      6.2920                 6.3063                 6.3461
 IR Inten    --     23.2684                20.0604                10.2577

                    103                    104                    105
                      A                      A                      A
 Frequencies --   3144.0899              3147.8491              3151.9744
 Red. masses --      1.0598                 1.0600                 1.1112
 Frc consts  --      6.1723                 6.1883                 6.5045
 IR Inten    --     10.1861                 8.0331                 4.3651

                    106                    107                    108
                      A                      A                      A
 Frequencies --   3236.7009              3240.8149              3432.8319
 Red. masses --      1.1166                 1.1168                 1.0683
 Frc consts  --      6.8920                 6.9108                 7.4175
 IR Inten    --      2.8130                 2.0554              1337.8470

 - Thermochemistry -
 -------------------
 Temperature   298.150 Kelvin.  Pressure   1.00000 Atm.
 Atom     1 has atomic number  6 and mass  12.00000

 Molecular mass:   243.14706 amu.
 Principal axes and moments of inertia in atomic units:
                           1         2         3
     Eigenvalues --  3418.026006934.057249225.09212
           X            0.99996   0.00737  -0.00569
           Y           -0.00738   0.99997  -0.00220
           Z            0.00567   0.00225   0.99998
 This molecule is an asymmetric top.
 Rotational symmetry number  1.
 Warning -- assumption of classical behavior for rotation
           may cause significant error
 Rotational temperatures (Kelvin)      0.02534     0.01249     0.00939
 Rotational constants (GHZ):           0.52801     0.26027     0.19563
 Zero-point vibrational energy     844246.1 (Joules/Mol)
                                  201.77966 (Kcal/Mol)
 Warning -- explicit consideration of  32 degrees of freedom as
           vibrations may cause significant error
 Vibrational temperatures:     20.50    34.76    53.63    63.86    67.40
          (Kelvin)            100.11   101.90   115.79   136.11   143.67
                              147.42   177.90   269.67   272.90   291.07
                              316.53   372.11   383.24   406.83   425.47
                              528.01   541.91   545.28   560.88   569.76
                              584.56   641.69   672.39   762.20   789.72
                              845.28   883.49   953.07   957.64  1143.37
                             1161.33  1198.85  1203.17  1235.93  1245.98
                             1294.37  1360.71  1370.91  1410.03  1419.83
                             1435.80  1479.85  1483.63  1503.56  1529.47
                             1541.16  1542.46  1547.92  1604.24  1611.10
                             1710.51  1739.67  1749.15  1774.12  1857.35
                             1869.37  1877.74  1911.46  1932.07  1980.93
                             2029.25  2031.94  2034.91  2063.40  2064.49
                             2068.12  2085.35  2121.55  2123.82  2125.62
                             2139.18  2148.43  2148.88  2152.62  2165.46
                             2173.37  2180.25  2191.82  2430.15  2435.93
                             2497.86  2535.94  4185.89  4198.87  4223.27
                             4366.33  4369.67  4396.60  4402.88  4422.26
                             4442.67  4446.18  4446.56  4459.49  4476.25
                             4481.78  4502.67  4523.64  4529.05  4534.99
                             4656.89  4662.81  4939.08

 Zero-point correction=                           0.321556 (Hartree/Particle)
 Thermal correction to Energy=                    0.342647
 Thermal correction to Enthalpy=                  0.343591
 Thermal correction to Gibbs Free Energy=         0.268095
 Sum of electronic and zero-point Energies=           -825.547352
 Sum of electronic and thermal Energies=              -825.526262
 Sum of electronic and thermal Enthalpies=            -825.525318
 Sum of electronic and thermal Free Energies=         -825.600814

                     E (Thermal)             CV                S
                      KCal/Mol        Cal/Mol-Kelvin    Cal/Mol-Kelvin
 Total                  215.014             73.844            158.895
 Electronic               0.000              0.000              0.000
 Translational            0.889              2.981             42.366
 Rotational               0.889              2.981             33.747
 Vibrational            213.237             67.882             82.782
 Vibration     1          0.593              1.986              7.308
 Vibration     2          0.593              1.985              6.259
 Vibration     3          0.594              1.982              5.399
 Vibration     4          0.595              1.980              5.053
 Vibration     5          0.595              1.979              4.946
 Vibration     6          0.598              1.969              4.165
 Vibration     7          0.598              1.968              4.130
 Vibration     8          0.600              1.962              3.879
 Vibration     9          0.603              1.953              3.563
 Vibration    10          0.604              1.949              3.457
 Vibration    11          0.605              1.947              3.407
 Vibration    12          0.610              1.929              3.043
 Vibration    13          0.632              1.857              2.253
 Vibration    14          0.633              1.854              2.231
 Vibration    15          0.639              1.837              2.112
 Vibration    16          0.647              1.811              1.959
 Vibration    17          0.667              1.748              1.671
 Vibration    18          0.672              1.735              1.620
 Vibration    19          0.682              1.706              1.517
 Vibration    20          0.690              1.682              1.441
 Vibration    21          0.740              1.540              1.092
 Vibration    22          0.747              1.520              1.053
 Vibration    23          0.749              1.515              1.043
 Vibration    24          0.758              1.492              1.001
 Vibration    25          0.763              1.479              0.977
 Vibration    26          0.771              1.457              0.940
 Vibration    27          0.805              1.370              0.808
 Vibration    28          0.825              1.323              0.745
 Vibration    29          0.885              1.184              0.588
 Vibration    30          0.904              1.142              0.546
 Vibration    31          0.945              1.058              0.472
 Vibration    32          0.973              1.002              0.426

                           ! Non-Optimized Parameters !
 Normal termination of Gaussian 16 at Thu Apr 21 11:17:52 2022.
 Gaussian 16:  ES64L-G16RevA.03 25-Dec-2016

 ----------------------------------------------------------------------
 #P B3LYP/6-311++G(d,p) Geom=Allcheck SCF=Tight EmpiricalDispersion=GD3
 BJ Pop=CHELPG SP IOp(6/33=2)
 ----------------------------------------------------------------------

 Structure from the checkpoint file:  "MAA1-DMA1-3.chk"
 -----------------
 MAA1-DMA1 geo opt
 -----------------
 Charge =  0 Multiplicity = 1

                         Standard orientation:
 ---------------------------------------------------------------------
 Center     Atomic      Atomic             Coordinates (Angstroms)
 Number     Number       Type             X           Y           Z
 ---------------------------------------------------------------------
      1          6           0        4.017064   -1.700745   -1.295147
      2          6           0        3.538894   -1.374982    0.092599
      3          6           0        4.351286   -1.183289    1.134533
      4          6           0        2.065493   -1.247429    0.331220
      5          8           0        1.561404   -0.986208    1.406271
      6          8           0        1.352721   -1.435200   -0.785311
      7          1           0        5.106290   -1.761024   -1.321439
      8          1           0        3.688870   -0.942326   -2.010587
      9          1           0        3.603410   -2.652290   -1.638651
     10          1           0        5.427554   -1.256498    1.029694
     11          1           0        3.945602   -0.951602    2.111405
     12          1           0        0.392455   -1.329988   -0.589634
     13          6           0       -4.841353   -0.441604    0.489732
     14          6           0       -3.708069   -1.196901   -0.147605
     15          6           0       -3.861126   -2.332204   -0.833952
     16          6           0       -2.320490   -0.658284   -0.013022
     17          8           0       -1.331281   -1.193379   -0.482513
     18          8           0       -2.298104    0.480226    0.682592
     19          6           0       -1.017584    1.129788    0.917587
     20          6           0       -0.639621    1.984514   -0.289556
     21          7           0        0.441855    2.911693    0.023543
     22          6           0        1.721487    2.236043    0.218443
     23          6           0        0.551043    3.949634   -0.992611
     24          1           0       -5.787951   -0.952845    0.309217
     25          1           0       -4.910048    0.574186    0.092473
     26          1           0       -4.693204   -0.347795    1.568388
     27          1           0       -4.839777   -2.777769   -0.967936
     28          1           0       -3.006715   -2.833244   -1.270928
     29          1           0       -0.276168    0.371146    1.162329
     30          1           0       -1.191428    1.768744    1.781533
     31          1           0       -1.519489    2.571892   -0.565879
     32          1           0       -0.393141    1.335448   -1.148095
     33          1           0        2.484020    2.975443    0.471296
     34          1           0        2.052136    1.694907   -0.687113
     35          1           0        1.662262    1.521044    1.037733
     36          1           0       -0.394714    4.489603   -1.077233
     37          1           0        0.811051    3.547277   -1.989386
     38          1           0        1.325942    4.663076   -0.703627
 ---------------------------------------------------------------------

 SCF Done:  E(RB3LYP) =  -825.868908827     A.U. after   14 cycles

 The electronic state is 1-A.
 Alpha  occ. eigenvalues --  -19.18360 -19.15237 -19.12865 -19.10287 -14.31128
 Alpha  occ. eigenvalues --  -10.32182 -10.29909 -10.22819 -10.20739 -10.20049
 Alpha  occ. eigenvalues --  -10.19407 -10.19050 -10.18931 -10.18296 -10.17936
 Alpha  occ. eigenvalues --  -10.17791 -10.16891  -1.12585  -1.09955  -1.03870
 Alpha  occ. eigenvalues --   -1.00956  -0.92960  -0.83076  -0.81391  -0.77200
 Alpha  occ. eigenvalues --   -0.70857  -0.70851  -0.69742  -0.69059  -0.65920
 Alpha  occ. eigenvalues --   -0.62292  -0.59246  -0.56130  -0.55649  -0.51437
 Alpha  occ. eigenvalues --   -0.50838  -0.49423  -0.49330  -0.48635  -0.47817
 Alpha  occ. eigenvalues --   -0.46831  -0.45764  -0.45273  -0.44859  -0.43410
 Alpha  occ. eigenvalues --   -0.42982  -0.42225  -0.41058  -0.40851  -0.40694
 Alpha  occ. eigenvalues --   -0.39940  -0.39658  -0.38712  -0.38504  -0.37531
 Alpha  occ. eigenvalues --   -0.37370  -0.36818  -0.36244  -0.34869  -0.32190
 Alpha  occ. eigenvalues --   -0.31807  -0.30336  -0.28539  -0.27581  -0.27217
 Alpha  occ. eigenvalues --   -0.22424
 Alpha virt. eigenvalues --   -0.06572  -0.05031  -0.01103  -0.00500   0.00192
 Alpha virt. eigenvalues --    0.01047   0.01486   0.01820   0.02184   0.02711
 Alpha virt. eigenvalues --    0.02970   0.03464   0.03526   0.04324   0.04691

 Mulliken charges:
               1
     1  C   -0.584892
     2  C    0.858635
     3  C   -0.619362
     4  C   -0.455684
     5  O   -0.248652
     6  O   -0.271721
     7  H    0.150335
     8  H    0.172702
     9  H    0.174477
    10  H    0.128789
    11  H    0.197087
    12  H    0.594864
    13  C   -0.612872
    14  C    0.851007
    15  C   -0.657289
    16  C   -0.301481
    17  O   -0.312621
    18  O    0.004925
    19  C   -0.592191
    20  C   -0.271114
    21  N    0.124462
    22  C   -0.448670
    23  C   -0.258696
    24  H    0.156615
    25  H    0.165494
    26  H    0.169733
    27  H    0.145628
    28  H    0.178079
    29  H    0.262413
    30  H    0.170566
    31  H    0.168638
    32  H    0.180108
    33  H    0.161658
    34  H    0.100337
    35  H    0.141465
    36  H    0.119024
    37  H    0.119453
    38  H    0.138751
 Sum of Mulliken charges =  -0.00000

 Dipole moment (field-independent basis, Debye):
    X=             -1.2562    Y=              0.7968    Z=             -1.2491  Tot=              1.9425
 Quadrupole moment (field-independent basis, Debye-Ang):
   XX=            -84.5734   YY=           -103.8932   ZZ=           -109.0539
   XY=              2.9656   XZ=             -0.7302   YZ=             -0.0854

 ESP charges:
               1
     1  C   -0.127823
     2  C    0.009307
     3  C   -0.342608
     4  C    0.732679
     5  O   -0.603028
     6  O   -0.610896
     7  H    0.052584
     8  H    0.047325
     9  H    0.053695
    10  H    0.152641
    11  H    0.148380
    12  H    0.471272
    13  C   -0.108311
    14  C    0.017717
    15  C   -0.327573
    16  C    0.669966
    17  O   -0.608734
    18  O   -0.398697
    19  C    0.193463
    20  C    0.164524
    21  N   -0.429559
    22  C   -0.095774
    23  C   -0.075935
    24  H    0.055352
    25  H    0.033178
    26  H    0.046493
    27  H    0.154608
    28  H    0.151144
    29  H    0.104661
    30  H    0.019006
    31  H    0.042363
    32  H    0.010475
    33  H    0.081254
    34  H    0.064397
    35  H    0.065479
    36  H    0.062860
    37  H    0.035419
    38  H    0.088697
 Sum of ESP charges =   0.00000

 Normal termination of Gaussian 16 at Thu Apr 21 11:34:54 2022.
