 Gaussian 16, Revision A.03,

 ---------------------------------------------------------------------
 #n B3LYP/6-311++G(d,p) Opt freq EmpiricalDispersion=GD3BJ IOp(6/33=2)
 ---------------------------------------------------------------------

 -----------------
 MAA1-DMA1 geo opt
 -----------------
 Symbolic Z-matrix:
 Charge =  0 Multiplicity = 1

 SCF Done:  E(RB3LYP) =  -825.821720053     A.U. after   15 cycles
 SCF Done:  E(RB3LYP) =  -825.849288527     A.U. after   13 cycles
 SCF Done:  E(RB3LYP) =  -825.645189497     A.U. after   16 cycles
 SCF Done:  E(RB3LYP) =  -825.857249807     A.U. after   13 cycles
 SCF Done:  E(RB3LYP) =  -825.861096147     A.U. after   11 cycles
 SCF Done:  E(RB3LYP) =  -825.863382509     A.U. after   12 cycles
 SCF Done:  E(RB3LYP) =  -825.862142858     A.U. after   14 cycles
 SCF Done:  E(RB3LYP) =  -825.865099642     A.U. after   12 cycles
 SCF Done:  E(RB3LYP) =  -825.866514609     A.U. after   13 cycles
 SCF Done:  E(RB3LYP) =  -825.867748872     A.U. after   12 cycles
 SCF Done:  E(RB3LYP) =  -825.868907459     A.U. after    8 cycles
 SCF Done:  E(RB3LYP) =  -825.868907663     A.U. after    8 cycles
 SCF Done:  E(RB3LYP) =  -825.868907956     A.U. after    9 cycles
 SCF Done:  E(RB3LYP) =  -825.868908181     A.U. after    9 cycles
 SCF Done:  E(RB3LYP) =  -825.868908381     A.U. after    9 cycles
 SCF Done:  E(RB3LYP) =  -825.868908553     A.U. after    9 cycles
 SCF Done:  E(RB3LYP) =  -825.868908714     A.U. after    8 cycles
 SCF Done:  E(RB3LYP) =  -825.868908800     A.U. after    8 cycles
 Optimization completed.
    -- Stationary point found.
 Normal termination of Gaussian 16 at Thu Apr 21 11:12:59 2022.

 ----------------------------------------------------------------------
 #N Geom=AllCheck Guess=TCheck SCRF=Check Test GenChk RB3LYP/6-311++G(d
 ,p) Freq
 ----------------------------------------------------------------------

 Structure from the checkpoint file:  "MAA1-DMA1-2.chk"
 -----------------
 MAA1-DMA1 geo opt
 -----------------
 Charge =  0 Multiplicity = 1

 SCF Done:  E(RB3LYP) =  -825.868908800     A.U. after    1 cycles

  Exact polarizability: 199.678   9.261 166.986   6.232  14.784 150.887
 Approx polarizability: 247.024   6.612 228.811  11.704  34.495 241.189

                      1                      2                      3
                      A                      A                      A
 Frequencies --     14.2455                24.1208                37.2681
 Red. masses --      3.8353                 3.6262                 3.1646
 Frc consts  --      0.0005                 0.0012                 0.0026
 IR Inten    --      0.8095                 0.2865                 0.2100

                      4                      5                      6
                      A                      A                      A
 Frequencies --     44.3818                46.8349                69.5891
 Red. masses --      2.8330                 4.1556                 4.1080
 Frc consts  --      0.0033                 0.0054                 0.0117
 IR Inten    --      1.2417                 1.2722                 0.4812

                      7                      8                      9
                      A                      A                      A
 Frequencies --     70.8021                80.4686                94.5846
 Red. masses --      4.0739                 5.6978                 7.6472
 Frc consts  --      0.0120                 0.0217                 0.0403
 IR Inten    --      1.1005                 1.0744                 0.1473

                     10                     11                     12
                      A                      A                      A
 Frequencies --     99.8589               102.4634               123.6228
 Red. masses --      7.4741                 4.8914                 2.8244
 Frc consts  --      0.0439                 0.0303                 0.0254
 IR Inten    --      2.9855                 5.2425                 0.6242

                     13                     14                     15
                      A                      A                      A
 Frequencies --    187.4757               189.6677               202.3048
 Red. masses --      1.0365                 1.0440                 2.8833
 Frc consts  --      0.0215                 0.0221                 0.0695
 IR Inten    --      0.4288                 0.1944                 2.1383

                     16                     17                     18
                      A                      A                      A
 Frequencies --    219.9690               258.6089               266.3445
 Red. masses --      2.7223                 1.0910                 1.6454
 Frc consts  --      0.0776                 0.0430                 0.0688
 IR Inten    --      1.8796                 0.1496                 0.2942

                     19                     20                     21
                      A                      A                      A
 Frequencies --    282.7169               295.7260               366.9713
 Red. masses --      1.8302                 3.9817                 2.9986
 Frc consts  --      0.0862                 0.2052                 0.2379
 IR Inten    --      6.9847                 7.8200                 3.2912

                     22                     23                     24
                      A                      A                      A
 Frequencies --    376.6413               378.9745               389.8257
 Red. masses --      3.2114                 2.8018                 2.7822
 Frc consts  --      0.2684                 0.2371                 0.2491
 IR Inten    --      2.2573                14.3069                 2.0649

                     25                     26                     27
                      A                      A                      A
 Frequencies --    395.9828               406.2775               446.0014
 Red. masses --      2.9881                 2.6237                 3.0547
 Frc consts  --      0.2761                 0.2552                 0.3580
 IR Inten    --      1.8571                 2.3612                 1.6952

                     28                     29                     30
                      A                      A                      A
 Frequencies --    467.3189               529.7557               548.8725
 Red. masses --      2.6694                 5.1168                 4.8418
 Frc consts  --      0.3435                 0.8461                 0.8594
 IR Inten    --      4.9321                 7.7361                28.3211

                     31                     32                     33
                      A                      A                      A
 Frequencies --    587.4906               614.0757               662.4100
 Red. masses --      3.9519                 3.6388                 1.3300
 Frc consts  --      0.8036                 0.8084                 0.3438
 IR Inten    --      9.4231                 3.2006                 4.0880

                     34                     35                     36
                      A                      A                      A
 Frequencies --    665.5965               794.6621               807.1616
 Red. masses --      1.3507                 4.3598                 1.4570
 Frc consts  --      0.3526                 1.6221                 0.5593
 IR Inten    --      8.1998                31.6565                 2.5177

                     37                     38                     39
                      A                      A                      A
 Frequencies --    833.2408               836.2359               859.0181
 Red. masses --      2.6549                 2.3121                 2.7647
 Frc consts  --      1.0860                 0.9526                 1.2020
 IR Inten    --     13.6395                 5.8898                 6.2032

                     40                     41                     42
                      A                      A                      A
 Frequencies --    865.9765               899.5100               945.7864
 Red. masses --      4.0418                 1.1434                 2.1743
 Frc consts  --      1.7858                 0.5451                 1.1459
 IR Inten    --     19.2785               113.1094                14.8407

                     43                     44                     45
                      A                      A                      A
 Frequencies --    952.8459               979.9998               986.8277
 Red. masses --      1.8253                 1.3364                 1.3320
 Frc consts  --      0.9764                 0.7562                 0.7643
 IR Inten    --      4.1517                33.5204                34.9789

                     46                     47                     48
                      A                      A                      A
 Frequencies --    998.1391              1028.5511              1031.1833
 Red. masses --      4.1957                 1.3827                 1.4065
 Frc consts  --      2.4628                 0.8618                 0.8812
 IR Inten    --     26.7416                15.5026                16.6612

                     49                     50                     51
                      A                      A                      A
 Frequencies --   1045.0233              1063.0247              1071.1625
 Red. masses --      2.7434                 1.6277                 1.4903
 Frc consts  --      1.7652                 1.0837                 1.0074
 IR Inten    --     23.1416                17.3665                 0.0842

                     52                     53                     54
                      A                      A                      A
 Frequencies --   1072.0630              1075.8323              1114.9995
 Red. masses --      1.4905                 2.4050                 1.5675
 Frc consts  --      1.0093                 1.6400                 1.1482
 IR Inten    --      0.1656                15.5454                 8.0092

                     55                     56                     57
                      A                      A                      A
 Frequencies --   1119.7579              1188.8698              1209.1081
 Red. masses --      1.2959                 1.6693                 3.0870
 Frc consts  --      0.9573                 1.3902                 2.6590
 IR Inten    --      6.4609                 6.3222               114.2528

                     58                     59                     60
                      A                      A                      A
 Frequencies --   1215.6921              1233.0296              1290.9256
 Red. masses --      3.3274                 2.3793                 2.1452
 Frc consts  --      2.8973                 2.1313                 2.1063
 IR Inten    --    378.5289                86.3867               116.8973

                     61                     62                     63
                      A                      A                      A
 Frequencies --   1299.2996              1305.1219              1328.5277
 Red. masses --      2.0325                 1.7689                 2.6389
 Frc consts  --      2.0216                 1.7752                 2.7442
 IR Inten    --      4.6499                 3.6281               229.3876

                     64                     65                     66
                      A                      A                      A
 Frequencies --   1342.8619              1376.8278              1410.3994
 Red. masses --      1.2369                 1.4537                 1.1773
 Frc consts  --      1.3142                 1.6236                 1.3799
 IR Inten    --     79.4143                19.0918                10.8810

                     67                     68                     69
                      A                      A                      A
 Frequencies --   1412.2620              1414.3251              1434.1359
 Red. masses --      1.2219                 1.8014                 1.2603
 Frc consts  --      1.4359                 2.1231                 1.5273
 IR Inten    --     10.5421                18.7172                23.8854

                     70                     71                     72
                      A                      A                      A
 Frequencies --   1434.8959              1437.4233              1449.3773
 Red. masses --      1.2737                 1.2680                 1.2010
 Frc consts  --      1.5451                 1.5436                 1.4865
 IR Inten    --      2.7654                17.8891                 1.8286

                     73                     74                     75
                      A                      A                      A
 Frequencies --   1474.5268              1476.1188              1477.3678
 Red. masses --      1.1821                 1.0439                 1.0432
 Frc consts  --      1.5143                 1.3401                 1.3416
 IR Inten    --      0.8143                 7.5747                 9.0964

                     76                     77                     78
                      A                      A                      A
 Frequencies --   1486.7922              1493.2363              1493.5474
 Red. masses --      1.0461                 1.0652                 1.0588
 Frc consts  --      1.3624                 1.3994                 1.3916
 IR Inten    --      7.4258                33.3774                33.4718

                     79                     80                     81
                      A                      A                      A
 Frequencies --   1496.1419              1505.0427              1510.5725
 Red. masses --      1.0701                 1.0453                 1.0853
 Frc consts  --      1.4113                 1.3950                 1.4591
 IR Inten    --      9.0267                15.3204                 8.0343

                     82                     83                     84
                      A                      A                      A
 Frequencies --   1515.3305              1523.3988              1689.0483
 Red. masses --      1.0588                 1.0928                 5.9746
 Frc consts  --      1.4324                 1.4943                10.0426
 IR Inten    --     11.5942                16.8687               105.4110

                     85                     86                     87
                      A                      A                      A
 Frequencies --   1693.0530              1736.1551              1762.6175
 Red. masses --      5.7258                 8.7204                 8.6779
 Frc consts  --      9.6700                15.4869                15.8848
 IR Inten    --     66.1768               137.8121               312.2424

                     88                     89                     90
                      A                      A                      A
 Frequencies --   2909.3135              2918.3402              2935.4146
 Red. masses --      1.0616                 1.0628                 1.0706
 Frc consts  --      5.2941                 5.3331                 5.4350
 IR Inten    --     61.8853                86.4321                77.2635

                     91                     92                     93
                      A                      A                      A
 Frequencies --   3034.7366              3037.0777              3055.7973
 Red. masses --      1.0351                 1.0353                 1.0722
 Frc consts  --      5.6164                 5.6263                 5.8991
 IR Inten    --     17.6080                16.4210                20.8195

                     94                     95                     96
                      A                      A                      A
 Frequencies --   3060.1234              3073.6266              3087.7649
 Red. masses --      1.0846                 1.0734                 1.0997
 Frc consts  --      5.9842                 5.9745                 6.1773
 IR Inten    --     40.5879                25.0544                11.6450

                     97                     98                     99
                      A                      A                      A
 Frequencies --   3090.2419              3090.4344              3099.5237
 Red. masses --      1.0993                 1.0588                 1.1033
 Frc consts  --      6.1853                 5.9578                 6.2452
 IR Inten    --     10.8203                22.9338                31.5344

                    100                    101                    102
                      A                      A                      A
 Frequencies --   3111.1554              3115.0353              3129.5755
 Red. masses --      1.1033                 1.1031                 1.0998
 Frc consts  --      6.2920                 6.3065                 6.3464
 IR Inten    --     23.2752                20.0615                10.2541

                    103                    104                    105
                      A                      A                      A
 Frequencies --   3144.0956              3147.8500              3151.8734
 Red. masses --      1.0598                 1.0600                 1.1112
 Frc consts  --      6.1723                 6.1883                 6.5040
 IR Inten    --     10.1824                 8.0303                 4.3676

                    106                    107                    108
                      A                      A                      A
 Frequencies --   3236.7143              3240.8209              3432.9561
 Red. masses --      1.1166                 1.1168                 1.0683
 Frc consts  --      6.8921                 6.9109                 7.4180
 IR Inten    --      2.8118                 2.0550              1337.3500

 - Thermochemistry -
 -------------------
 Temperature   298.150 Kelvin.  Pressure   1.00000 Atm.
 Atom     1 has atomic number  6 and mass  12.00000

 Molecular mass:   243.14706 amu.
 Principal axes and moments of inertia in atomic units:
                           1         2         3
     Eigenvalues --  3416.748576934.240099223.42697
           X            0.99996   0.00738  -0.00569
           Y           -0.00739   0.99997  -0.00220
           Z            0.00568   0.00225   0.99998
 This molecule is an asymmetric top.
 Rotational symmetry number  1.
 Warning -- assumption of classical behavior for rotation
           may cause significant error
 Rotational temperatures (Kelvin)      0.02535     0.01249     0.00939
 Rotational constants (GHZ):           0.52820     0.26027     0.19567
 Zero-point vibrational energy     844245.1 (Joules/Mol)
                                  201.77941 (Kcal/Mol)
 Warning -- explicit consideration of  32 degrees of freedom as
           vibrations may cause significant error
 Vibrational temperatures:     20.50    34.70    53.62    63.86    67.39
          (Kelvin)            100.12   101.87   115.78   136.09   143.67
                              147.42   177.87   269.74   272.89   291.07
                              316.49   372.08   383.21   406.77   425.48
                              527.99   541.90   545.26   560.87   569.73
                              584.54   641.70   672.37   762.20   789.71
                              845.27   883.52   953.06   957.64  1143.34
                             1161.33  1198.85  1203.16  1235.94  1245.95
                             1294.19  1360.78  1370.93  1410.00  1419.82
                             1436.10  1479.86  1483.64  1503.56  1529.46
                             1541.16  1542.46  1547.88  1604.24  1611.08
                             1710.52  1739.64  1749.11  1774.05  1857.35
                             1869.40  1877.78  1911.46  1932.08  1980.95
                             2029.25  2031.93  2034.90  2063.40  2064.50
                             2068.13  2085.33  2121.52  2123.81  2125.60
                             2139.16  2148.43  2148.88  2152.61  2165.42
                             2173.38  2180.22  2191.83  2430.16  2435.93
                             2497.94  2536.01  4185.85  4198.84  4223.41
                             4366.31  4369.68  4396.61  4402.84  4422.26
                             4442.60  4446.17  4446.45  4459.52  4476.26
                             4481.84  4502.76  4523.65  4529.05  4534.84
                             4656.91  4662.82  4939.26

 Zero-point correction=                           0.321556 (Hartree/Particle)
 Thermal correction to Energy=                    0.342647
 Thermal correction to Enthalpy=                  0.343591
 Thermal correction to Gibbs Free Energy=         0.268092
 Sum of electronic and zero-point Energies=           -825.547353
 Sum of electronic and thermal Energies=              -825.526262
 Sum of electronic and thermal Enthalpies=            -825.525318
 Sum of electronic and thermal Free Energies=         -825.600816

                     E (Thermal)             CV                S
                      KCal/Mol        Cal/Mol-Kelvin    Cal/Mol-Kelvin
 Total                  215.014             73.844            158.901
 Electronic               0.000              0.000              0.000
 Translational            0.889              2.981             42.366
 Rotational               0.889              2.981             33.746
 Vibrational            213.237             67.883             82.788
 Vibration     1          0.593              1.986              7.308
 Vibration     2          0.593              1.985              6.262
 Vibration     3          0.594              1.982              5.399
 Vibration     4          0.595              1.980              5.053
 Vibration     5          0.595              1.979              4.947
 Vibration     6          0.598              1.969              4.165
 Vibration     7          0.598              1.968              4.131
 Vibration     8          0.600              1.962              3.879
 Vibration     9          0.603              1.953              3.563
 Vibration    10          0.604              1.949              3.457
 Vibration    11          0.605              1.947              3.407
 Vibration    12          0.610              1.929              3.043
 Vibration    13          0.632              1.857              2.253
 Vibration    14          0.633              1.854              2.231
 Vibration    15          0.639              1.837              2.112
 Vibration    16          0.647              1.811              1.959
 Vibration    17          0.667              1.748              1.671
 Vibration    18          0.672              1.735              1.620
 Vibration    19          0.682              1.706              1.517
 Vibration    20          0.690              1.682              1.441
 Vibration    21          0.740              1.540              1.092
 Vibration    22          0.747              1.520              1.053
 Vibration    23          0.749              1.515              1.043
 Vibration    24          0.758              1.492              1.001
 Vibration    25          0.763              1.479              0.978
 Vibration    26          0.771              1.457              0.940
 Vibration    27          0.805              1.370              0.808
 Vibration    28          0.825              1.323              0.745
 Vibration    29          0.885              1.184              0.588
 Vibration    30          0.904              1.142              0.547
 Vibration    31          0.945              1.058              0.472
 Vibration    32          0.973              1.002              0.426

                           ! Non-Optimized Parameters !
 Normal termination of Gaussian 16 at Thu Apr 21 11:20:59 2022.
 Gaussian 16:  ES64L-G16RevA.03 25-Dec-2016

 ----------------------------------------------------------------------
 #P B3LYP/6-311++G(d,p) Geom=Allcheck SCF=Tight EmpiricalDispersion=GD3
 BJ Pop=CHELPG SP IOp(6/33=2)
 ----------------------------------------------------------------------

 Structure from the checkpoint file:  "MAA1-DMA1-2.chk"
 -----------------
 MAA1-DMA1 geo opt
 -----------------
 Charge =  0 Multiplicity = 1

                         Standard orientation:
 ---------------------------------------------------------------------
 Center     Atomic      Atomic             Coordinates (Angstroms)
 Number     Number       Type             X           Y           Z
 ---------------------------------------------------------------------
      1          6           0        4.016367   -1.699190   -1.295653
      2          6           0        3.538152   -1.375161    0.092462
      3          6           0        4.350501   -1.184310    1.134591
      4          6           0        2.064709   -1.248419    0.331296
      5          8           0        1.560587   -0.987487    1.406387
      6          8           0        1.351901   -1.436631   -0.785169
      7          1           0        5.105611   -1.759046   -1.322076
      8          1           0        3.687819   -0.940123   -2.010242
      9          1           0        3.603057   -2.650516   -1.640203
     10          1           0        5.426792   -1.257005    1.029653
     11          1           0        3.944715   -0.953851    2.111711
     12          1           0        0.391645   -1.331556   -0.589395
     13          6           0       -4.841501   -0.439802    0.490199
     14          6           0       -3.708716   -1.195332   -0.147762
     15          6           0       -3.862501   -2.330169   -0.834720
     16          6           0       -2.320848   -0.657524   -0.013128
     17          8           0       -1.331932   -1.193057   -0.482703
     18          8           0       -2.297808    0.480872    0.682706
     19          6           0       -1.017071    1.129788    0.917617
     20          6           0       -0.638223    1.983849   -0.289727
     21          7           0        0.443271    2.910937    0.023616
     22          6           0        1.722668    2.235098    0.219537
     23          6           0        0.553294    3.948392   -0.992943
     24          1           0       -5.788399   -0.950404    0.309487
     25          1           0       -4.909674    0.576285    0.093613
     26          1           0       -4.693124   -0.346754    1.568892
     27          1           0       -4.841421   -2.775112   -0.968797
     28          1           0       -3.008430   -2.831448   -1.272086
     29          1           0       -0.276063    0.370881    1.162841
     30          1           0       -1.190679    1.769250    1.781239
     31          1           0       -1.517781    2.571328   -0.566837
     32          1           0       -0.391387    1.334372   -1.147840
     33          1           0        2.053921    1.693894   -0.685761
     34          1           0        1.662690    1.520138    1.038798
     35          1           0        2.485115    2.974410    0.472899
     36          1           0       -0.392284    4.488538   -1.078370
     37          1           0        0.813798    3.545502   -1.989376
     38          1           0        1.328214    4.661764   -0.703841
 ---------------------------------------------------------------------

 SCF Done:  E(RB3LYP) =  -825.868908800     A.U. after   14 cycles

 The electronic state is 1-A.
 Alpha  occ. eigenvalues --  -19.18360 -19.15237 -19.12866 -19.10288 -14.31128
 Alpha  occ. eigenvalues --  -10.32182 -10.29909 -10.22818 -10.20739 -10.20048
 Alpha  occ. eigenvalues --  -10.19407 -10.19051 -10.18931 -10.18297 -10.17936
 Alpha  occ. eigenvalues --  -10.17791 -10.16892  -1.12585  -1.09955  -1.03872
 Alpha  occ. eigenvalues --   -1.00957  -0.92960  -0.83076  -0.81392  -0.77200
 Alpha  occ. eigenvalues --   -0.70857  -0.70851  -0.69742  -0.69060  -0.65920
 Alpha  occ. eigenvalues --   -0.62292  -0.59246  -0.56129  -0.55648  -0.51437
 Alpha  occ. eigenvalues --   -0.50838  -0.49424  -0.49330  -0.48635  -0.47817
 Alpha  occ. eigenvalues --   -0.46830  -0.45765  -0.45273  -0.44858  -0.43410
 Alpha  occ. eigenvalues --   -0.42983  -0.42226  -0.41059  -0.40851  -0.40694
 Alpha  occ. eigenvalues --   -0.39941  -0.39658  -0.38712  -0.38503  -0.37531
 Alpha  occ. eigenvalues --   -0.37371  -0.36818  -0.36244  -0.34869  -0.32190
 Alpha  occ. eigenvalues --   -0.31806  -0.30336  -0.28540  -0.27581  -0.27218
 Alpha  occ. eigenvalues --   -0.22423
 Alpha virt. eigenvalues --   -0.06573  -0.05032  -0.01103  -0.00501   0.00193
 Alpha virt. eigenvalues --    0.01047   0.01486   0.01821   0.02183   0.02712
 Alpha virt. eigenvalues --    0.02970   0.03464   0.03527   0.04324   0.04692

 Mulliken charges:
               1
     1  C   -0.584805
     2  C    0.858957
     3  C   -0.619350
     4  C   -0.456227
     5  O   -0.248673
     6  O   -0.271311
     7  H    0.150338
     8  H    0.172683
     9  H    0.174500
    10  H    0.128765
    11  H    0.197099
    12  H    0.594653
    13  C   -0.612843
    14  C    0.850941
    15  C   -0.657166
    16  C   -0.301864
    17  O   -0.312480
    18  O    0.004900
    19  C   -0.591862
    20  C   -0.271226
    21  N    0.124482
    22  C   -0.448528
    23  C   -0.258680
    24  H    0.156615
    25  H    0.165515
    26  H    0.169724
    27  H    0.145625
    28  H    0.178070
    29  H    0.262342
    30  H    0.170645
    31  H    0.168504
    32  H    0.180127
    33  H    0.100233
    34  H    0.141367
    35  H    0.161694
    36  H    0.119038
    37  H    0.119443
    38  H    0.138753
 Sum of Mulliken charges =  -0.00000

 Dipole moment (field-independent basis, Debye):
    X=             -1.2554    Y=              0.7981    Z=             -1.2492  Tot=              1.9425
 Quadrupole moment (field-independent basis, Debye-Ang):
   XX=            -84.5682   YY=           -103.9070   ZZ=           -109.0503
   XY=              2.9667   XZ=             -0.7281   YZ=             -0.0854

 ESP charges:
               1
     1  C   -0.128969
     2  C    0.010492
     3  C   -0.342988
     4  C    0.730902
     5  O   -0.602582
     6  O   -0.610302
     7  H    0.052756
     8  H    0.047665
     9  H    0.053959
    10  H    0.152753
    11  H    0.148510
    12  H    0.471217
    13  C   -0.108493
    14  C    0.017977
    15  C   -0.327772
    16  C    0.669777
    17  O   -0.608617
    18  O   -0.399046
    19  C    0.193430
    20  C    0.169849
    21  N   -0.432284
    22  C   -0.093322
    23  C   -0.075753
    24  H    0.055283
    25  H    0.033363
    26  H    0.046577
    27  H    0.154752
    28  H    0.151055
    29  H    0.104604
    30  H    0.018758
    31  H    0.040774
    32  H    0.009166
    33  H    0.063731
    34  H    0.064755
    35  H    0.080924
    36  H    0.063022
    37  H    0.035389
    38  H    0.088686
 Sum of ESP charges =   0.00000

 Normal termination of Gaussian 16 at Thu Apr 21 11:37:56 2022.
