 Gaussian 16, Revision A.03,

 ---------------------------------------------------------------------
 #n B3LYP/6-311++G(d,p) Opt freq EmpiricalDispersion=GD3BJ IOp(6/33=2)
 ---------------------------------------------------------------------

 ----------------
 MAA1-VI1 geo opt
 ----------------
 Symbolic Z-matrix:
 Charge =  0 Multiplicity = 1

 SCF Done:  E(RB3LYP) =  -610.292986298     A.U. after   14 cycles
 SCF Done:  E(RB3LYP) =  -610.309359529     A.U. after   12 cycles
 SCF Done:  E(RB3LYP) =  -610.310542685     A.U. after   14 cycles
 SCF Done:  E(RB3LYP) =  -610.312101638     A.U. after   14 cycles
 SCF Done:  E(RB3LYP) =  -610.315311707     A.U. after   12 cycles
 SCF Done:  E(RB3LYP) =  -610.316112109     A.U. after   13 cycles
 SCF Done:  E(RB3LYP) =  -610.317025052     A.U. after   14 cycles
 SCF Done:  E(RB3LYP) =  -610.317252599     A.U. after   14 cycles
 SCF Done:  E(RB3LYP) =  -610.317768576     A.U. after   14 cycles
 SCF Done:  E(RB3LYP) =  -610.318657849     A.U. after   13 cycles
 SCF Done:  E(RB3LYP) =  -610.320808239     A.U. after   11 cycles
 SCF Done:  E(RB3LYP) =  -610.320808786     A.U. after   10 cycles
 SCF Done:  E(RB3LYP) =  -610.320808977     A.U. after    9 cycles
 SCF Done:  E(RB3LYP) =  -610.320809102     A.U. after    9 cycles
 SCF Done:  E(RB3LYP) =  -610.320809209     A.U. after    8 cycles
 SCF Done:  E(RB3LYP) =  -610.320809306     A.U. after    8 cycles
 SCF Done:  E(RB3LYP) =  -610.320809341     A.U. after    8 cycles
 SCF Done:  E(RB3LYP) =  -610.320809354     A.U. after    7 cycles
 Optimization completed.
    -- Stationary point found.
 Normal termination of Gaussian 16 at Thu Apr 21 11:06:04 2022.

 ----------------------------------------------------------------------
 #N Geom=AllCheck Guess=TCheck SCRF=Check Test GenChk RB3LYP/6-311++G(d
 ,p) Freq
 ----------------------------------------------------------------------

 Structure from the checkpoint file:  "MAA1-VI1-3.chk"
 ----------------
 MAA1-VI1 geo opt
 ----------------
 Charge =  0 Multiplicity = 1

 SCF Done:  E(RB3LYP) =  -610.320809354     A.U. after    1 cycles

  Exact polarizability: 178.679   3.509 123.578   6.133 -10.955  96.092
 Approx polarizability: 238.378  12.549 194.257   8.789 -27.056 143.234

                      1                      2                      3
                      A                      A                      A
 Frequencies --     19.5303                26.7396                43.7081
 Red. masses --      5.4267                 3.9572                 4.1383
 Frc consts  --      0.0012                 0.0017                 0.0047
 IR Inten    --      0.5210                 1.4221                 0.1534

                      4                      5                      6
                      A                      A                      A
 Frequencies --     52.2084                70.2758                88.8772
 Red. masses --      3.6694                 3.1711                 6.1500
 Frc consts  --      0.0059                 0.0092                 0.0286
 IR Inten    --      0.1726                 0.3845                 0.4180

                      7                      8                      9
                      A                      A                      A
 Frequencies --    113.0104               150.2222               174.5329
 Red. masses --      4.2028                 5.5336                 1.0769
 Frc consts  --      0.0316                 0.0736                 0.0193
 IR Inten    --      1.4896                 5.2452                 1.2890

                     10                     11                     12
                      A                      A                      A
 Frequencies --    221.7460               249.6354               256.8249
 Red. masses --      2.5182                 3.4428                 3.4492
 Frc consts  --      0.0730                 0.1264                 0.1340
 IR Inten    --      0.7758                 2.4112                 2.8646

                     13                     14                     15
                      A                      A                      A
 Frequencies --    297.8597               363.3451               501.6931
 Red. masses --      4.3323                 2.7754                 3.4605
 Frc consts  --      0.2265                 0.2159                 0.5132
 IR Inten    --      5.8746                 2.6217                 1.7417

                     16                     17                     18
                      A                      A                      A
 Frequencies --    573.2586               585.1317               596.9668
 Red. masses --      2.8941                 3.4162                 2.3672
 Frc consts  --      0.5604                 0.6891                 0.4970
 IR Inten    --      1.3844                17.3084                12.7341

                     19                     20                     21
                      A                      A                      A
 Frequencies --    662.8863               672.7393               709.2511
 Red. masses --      3.3320                 2.9260                 1.5596
 Frc consts  --      0.8627                 0.7802                 0.4622
 IR Inten    --     12.3566                17.3063                 3.6831

                     22                     23                     24
                      A                      A                      A
 Frequencies --    711.9857               730.1751               798.6480
 Red. masses --      1.9984                 1.2538                 4.1513
 Frc consts  --      0.5969                 0.3939                 1.5601
 IR Inten    --      1.8607                20.6974                12.3403

                     25                     26                     27
                      A                      A                      A
 Frequencies --    812.7538               816.4974               881.9389
 Red. masses --      2.8975                 1.5860                 1.3348
 Frc consts  --      1.1277                 0.6230                 0.6117
 IR Inten    --     22.6834                17.7601                 7.3811

                     28                     29                     30
                      A                      A                      A
 Frequencies --    902.1464               926.4302               938.4351
 Red. masses --      1.3508                 1.2124                 1.3234
 Frc consts  --      0.6477                 0.6131                 0.6867
 IR Inten    --     54.9019                27.3282                75.7951

                     31                     32                     33
                      A                      A                      A
 Frequencies --    945.1178               957.8023               986.0798
 Red. masses --      4.7600                 1.7780                 1.1070
 Frc consts  --      2.5051                 0.9610                 0.6342
 IR Inten    --     18.3680                 2.3859                19.9598

                     34                     35                     36
                      A                      A                      A
 Frequencies --   1029.5622              1031.7319              1061.9279
 Red. masses --      2.4286                 1.4289                 1.8488
 Frc consts  --      1.5168                 0.8962                 1.2284
 IR Inten    --     41.4931                 6.1717                15.5279

                     37                     38                     39
                      A                      A                      A
 Frequencies --   1075.1922              1106.9584              1137.7979
 Red. masses --      1.4873                 1.4881                 1.9740
 Frc consts  --      1.0130                 1.0744                 1.5056
 IR Inten    --      2.5383                53.7092                28.3161

                     40                     41                     42
                      A                      A                      A
 Frequencies --   1197.1060              1254.5513              1304.6261
 Red. masses --      3.9300                 1.5593                 3.4659
 Frc consts  --      3.3182                 1.4460                 3.4756
 IR Inten    --    140.0697                41.5612                44.8589

                     43                     44                     45
                      A                      A                      A
 Frequencies --   1309.1063              1319.5016              1354.7862
 Red. masses --      2.0003                 2.5087                 2.0128
 Frc consts  --      2.0197                 2.5735                 2.1767
 IR Inten    --     74.5348                 2.7957                 1.4222

                     46                     47                     48
                      A                      A                      A
 Frequencies --   1410.2142              1411.9071              1432.1557
 Red. masses --      1.6320                 1.8340                 1.3033
 Frc consts  --      1.9123                 2.1541                 1.5750
 IR Inten    --     43.8618                 4.9268               287.5809

                     49                     50                     51
                      A                      A                      A
 Frequencies --   1440.8432              1458.2243              1481.7921
 Red. masses --      1.2244                 1.3167                 1.0440
 Frc consts  --      1.4976                 1.6496                 1.3506
 IR Inten    --    110.2217                 2.9063                20.1368

                     52                     53                     54
                      A                      A                      A
 Frequencies --   1496.4535              1523.8017              1556.1124
 Red. masses --      1.0604                 3.5488                 4.3182
 Frc consts  --      1.3991                 4.8550                 6.1607
 IR Inten    --     20.4363               146.8489                89.7103

                     55                     56                     57
                      A                      A                      A
 Frequencies --   1700.6979              1710.5173              1799.6811
 Red. masses --      5.4232                 4.6012                 8.9781
 Frc consts  --      9.2420                 7.9318                17.1326
 IR Inten    --      9.6065               126.5684               392.1428

                     58                     59                     60
                      A                      A                      A
 Frequencies --   3026.3321              3083.3486              3108.0566
 Red. masses --      1.0376                 1.0965                 1.1026
 Frc consts  --      5.5990                 6.1417                 6.2756
 IR Inten    --     19.2893                10.6434                14.7201

                     61                     62                     63
                      A                      A                      A
 Frequencies --   3130.1347              3166.0270              3192.9487
 Red. masses --      1.0603                 1.0592                 1.0942
 Frc consts  --      6.1208                 6.2556                 6.5726
 IR Inten    --      7.8981                 4.0513                11.3789

                     64                     65                     66
                      A                      A                      A
 Frequencies --   3214.1851              3220.1930              3249.9745
 Red. masses --      1.0755                 1.1146                 1.0970
 Frc consts  --      6.5464                 6.8095                 6.8271
 IR Inten    --   1934.6238                54.0688                15.6785

                     67                     68                     69
                      A                      A                      A
 Frequencies --   3254.0804              3256.6154              3291.9670
 Red. masses --      1.1121                 1.1003                 1.1035
 Frc consts  --      6.9385                 6.8754                 7.0457
 IR Inten    --      4.8179                 6.0920                 2.0801

 - Thermochemistry -
 -------------------
 Temperature   298.150 Kelvin.  Pressure   1.00000 Atm.
 Atom     1 has atomic number  6 and mass  12.00000

 Molecular mass:   180.08988 amu.
 Principal axes and moments of inertia in atomic units:
                           1         2         3
     Eigenvalues --   892.508695728.720136150.49397
           X            0.99992  -0.01226  -0.00413
           Y            0.01215   0.99960  -0.02554
           Z            0.00444   0.02549   0.99967
 This molecule is an asymmetric top.
 Rotational symmetry number  1.
 Warning -- assumption of classical behavior for rotation
           may cause significant error
 Rotational temperatures (Kelvin)      0.09705     0.01512     0.01408
 Rotational constants (GHZ):           2.02210     0.31503     0.29343
 Zero-point vibrational energy     524189.0 (Joules/Mol)
                                  125.28419 (Kcal/Mol)
 Warning -- explicit consideration of  18 degrees of freedom as
           vibrations may cause significant error
 Vibrational temperatures:     28.10    38.47    62.89    75.12   101.11
          (Kelvin)            127.87   162.60   216.14   251.11   319.04
                              359.17   369.51   428.55   522.77   721.82
                              824.79   841.87   858.90   953.75   967.92
                             1020.45  1024.39  1050.56  1149.08  1169.37
                             1174.76  1268.91  1297.99  1332.93  1350.20
                             1359.81  1378.06  1418.75  1481.31  1484.43
                             1527.88  1546.96  1592.67  1637.04  1722.37
                             1805.02  1877.07  1883.51  1898.47  1949.24
                             2028.98  2031.42  2060.55  2073.05  2098.06
                             2131.97  2153.06  2192.41  2238.90  2446.93
                             2461.05  2589.34  4354.22  4436.25  4471.80
                             4503.57  4555.21  4593.94  4624.50  4633.14
                             4675.99  4681.90  4685.54  4736.41

 Zero-point correction=                           0.199653 (Hartree/Particle)
 Thermal correction to Energy=                    0.213871
 Thermal correction to Enthalpy=                  0.214815
 Thermal correction to Gibbs Free Energy=         0.155103
 Sum of electronic and zero-point Energies=           -610.121156
 Sum of electronic and thermal Energies=              -610.106939
 Sum of electronic and thermal Enthalpies=            -610.105995
 Sum of electronic and thermal Free Energies=         -610.165707

                     E (Thermal)             CV                S
                      KCal/Mol        Cal/Mol-Kelvin    Cal/Mol-Kelvin
 Total                  134.206             49.413            125.675
 Electronic               0.000              0.000              0.000
 Translational            0.889              2.981             41.472
 Rotational               0.889              2.981             31.820
 Vibrational            132.428             43.451             52.383
 Vibration     1          0.593              1.986              6.681
 Vibration     2          0.593              1.984              6.058
 Vibration     3          0.595              1.980              5.084
 Vibration     4          0.596              1.977              4.732
 Vibration     5          0.598              1.968              4.146
 Vibration     6          0.602              1.957              3.685
 Vibration     7          0.607              1.939              3.217
 Vibration     8          0.618              1.902              2.669
 Vibration     9          0.627              1.874              2.386
 Vibration    10          0.648              1.808              1.945
 Vibration    11          0.662              1.763              1.733
 Vibration    12          0.666              1.751              1.683
 Vibration    13          0.691              1.678              1.429
 Vibration    14          0.737              1.548              1.108
 Vibration    15          0.857              1.246              0.654
 Vibration    16          0.930              1.089              0.498
 Vibration    17          0.942              1.064              0.476
 Vibration    18          0.955              1.038              0.455

 Optimization completed.
    -- Stationary point found.
 Normal termination of Gaussian 16 at Thu Apr 21 11:08:36 2022.
 Gaussian 16:  ES64L-G16RevA.03 25-Dec-2016

 ----------------------------------------------------------------------
 #P B3LYP/6-311++G(d,p) Geom=Allcheck SCF=Tight EmpiricalDispersion=GD3
 BJ Pop=CHELPG SP IOp(6/33=2)
 ----------------------------------------------------------------------

 Structure from the checkpoint file:  "MAA1-VI1-3.chk"
 ----------------
 MAA1-VI1 geo opt
 ----------------
 Charge =  0 Multiplicity = 1

                         Standard orientation:
 ---------------------------------------------------------------------
 Center     Atomic      Atomic             Coordinates (Angstroms)
 Number     Number       Type             X           Y           Z
 ---------------------------------------------------------------------
      1          6           0        2.182605   -0.902270   -1.612551
      2          6           0        2.705142   -0.692733   -0.215966
      3          6           0        2.967221   -1.683380    0.635927
      4          6           0        2.987276    0.730363    0.208207
      5          8           0        4.076883    1.098437    0.572443
      6          8           0        1.952390    1.579046    0.128592
      7          1           0        1.224592   -0.400347   -1.765672
      8          1           0        2.054819   -1.966178   -1.821162
      9          1           0        2.884968   -0.489600   -2.343989
     10          1           0        2.793098   -2.719358    0.363846
     11          1           0        3.377680   -1.485454    1.618782
     12          1           0        1.083792    1.109488    0.011008
     13          6           0       -5.135776   -0.221718    0.076158
     14          6           0       -4.083367    0.551486   -0.170502
     15          7           0       -2.735936    0.184693    0.008645
     16          6           0       -2.216057   -1.014657    0.475965
     17          6           0       -0.858963   -0.864741    0.463362
     18          7           0       -0.528803    0.394094   -0.002177
     19          6           0       -1.665349    0.996395   -0.262531
     20          1           0       -6.130927    0.163305   -0.096148
     21          1           0       -5.050413   -1.234276    0.447915
     22          1           0       -4.193779    1.562661   -0.542486
     23          1           0       -2.842842   -1.837051    0.769529
     24          1           0       -0.095994   -1.567473    0.755678
     25          1           0       -1.782396    2.000451   -0.639276
 ---------------------------------------------------------------------

 SCF Done:  E(RB3LYP) =  -610.320809354     A.U. after   14 cycles

 The electronic state is 1-A.
 Alpha  occ. eigenvalues --  -19.13312 -19.08775 -14.41892 -14.33980 -10.28439
 Alpha  occ. eigenvalues --  -10.26553 -10.25727 -10.23330 -10.22127 -10.20529
 Alpha  occ. eigenvalues --  -10.19184 -10.17282 -10.17021  -1.07817  -1.06493
 Alpha  occ. eigenvalues --   -0.99794  -0.93636  -0.80848  -0.80793  -0.78582
 Alpha  occ. eigenvalues --   -0.69805  -0.67692  -0.64057  -0.62363  -0.60896
 Alpha  occ. eigenvalues --   -0.57846  -0.56510  -0.49765  -0.49504  -0.48728
 Alpha  occ. eigenvalues --   -0.48684  -0.46437  -0.45593  -0.45341  -0.43986
 Alpha  occ. eigenvalues --   -0.42786  -0.42052  -0.41295  -0.39645  -0.37692
 Alpha  occ. eigenvalues --   -0.36876  -0.36135  -0.31897  -0.29872  -0.28591
 Alpha  occ. eigenvalues --   -0.27769  -0.27019  -0.24873
 Alpha virt. eigenvalues --   -0.06200  -0.02349  -0.01980  -0.00990  -0.00637
 Alpha virt. eigenvalues --   -0.00218   0.01073   0.01429   0.01742   0.02588
 Alpha virt. eigenvalues --    0.03012   0.03492   0.03966   0.04345   0.04708

 Mulliken charges:
               1
     1  C   -0.721201
     2  C    0.683694
     3  C   -0.399440
     4  C   -0.224829
     5  O   -0.268982
     6  O   -0.348890
     7  H    0.151581
     8  H    0.134553
     9  H    0.172967
    10  H    0.121888
    11  H    0.175452
    12  H    0.597353
    13  C   -0.412930
    14  C    0.024217
    15  N    0.179577
    16  C   -0.317509
    17  C   -0.087108
    18  N   -0.388629
    19  C   -0.010129
    20  H    0.174655
    21  H    0.123193
    22  H    0.161180
    23  H    0.142299
    24  H    0.184488
    25  H    0.152549
 Sum of Mulliken charges =  -0.00000

 Dipole moment (field-independent basis, Debye):
    X=             -8.9454    Y=             -3.1054    Z=             -1.4342  Tot=              9.5770
 Quadrupole moment (field-independent basis, Debye-Ang):
   XX=            -84.4078   YY=            -76.2895   ZZ=            -78.8710
   XY=            -13.1865   XZ=             -4.1075   YZ=             -5.4349

 ESP charges:
               1
     1  C    0.114111
     2  C   -0.061092
     3  C   -0.382871
     4  C    0.848288
     5  O   -0.597762
     6  O   -0.598078
     7  H   -0.037464
     8  H   -0.012011
     9  H   -0.009964
    10  H    0.162152
    11  H    0.135765
    12  H    0.238649
    13  C   -0.344848
    14  C   -0.095870
    15  N    0.185806
    16  C   -0.156119
    17  C   -0.106434
    18  N   -0.102267
    19  C   -0.074328
    20  H    0.155606
    21  H    0.163133
    22  H    0.139599
    23  H    0.154266
    24  H    0.122641
    25  H    0.159093
 Sum of ESP charges =   0.00000

 Normal termination of Gaussian 16 at Thu Apr 21 11:14:19 2022.
