 Gaussian 16, Revision A.03,

 ---------------------------------------------------------------------
 #n B3LYP/6-311++G(d,p) Opt freq EmpiricalDispersion=GD3BJ IOp(6/33=2)
 ---------------------------------------------------------------------

 ----------------
 MAA1-VI1 geo opt
 ----------------
 Symbolic Z-matrix:
 Charge =  0 Multiplicity = 1

 SCF Done:  E(RB3LYP) =  -610.293814579     A.U. after   14 cycles
 SCF Done:  E(RB3LYP) =  -610.310456264     A.U. after   12 cycles
 SCF Done:  E(RB3LYP) =  -610.314414457     A.U. after   12 cycles
 SCF Done:  E(RB3LYP) =  -610.314810628     A.U. after   12 cycles
 SCF Done:  E(RB3LYP) =  -610.317160272     A.U. after   12 cycles
 SCF Done:  E(RB3LYP) =  -610.318210250     A.U. after   12 cycles
 SCF Done:  E(RB3LYP) =  -610.318812670     A.U. after   12 cycles
 SCF Done:  E(RB3LYP) =  -610.319145180     A.U. after   11 cycles
 SCF Done:  E(RB3LYP) =  -610.319454171     A.U. after   12 cycles
 SCF Done:  E(RB3LYP) =  -610.319523326     A.U. after   11 cycles
 SCF Done:  E(RB3LYP) =  -610.319673413     A.U. after    8 cycles
 SCF Done:  E(RB3LYP) =  -610.319673458     A.U. after    8 cycles
 SCF Done:  E(RB3LYP) =  -610.319673516     A.U. after    8 cycles
 SCF Done:  E(RB3LYP) =  -610.319673579     A.U. after    9 cycles
 SCF Done:  E(RB3LYP) =  -610.319673633     A.U. after    9 cycles
 SCF Done:  E(RB3LYP) =  -610.319673671     A.U. after    8 cycles
 SCF Done:  E(RB3LYP) =  -610.319673693     A.U. after    8 cycles
 SCF Done:  E(RB3LYP) =  -610.319673703     A.U. after    7 cycles
 Optimization completed.
    -- Stationary point found.
 Normal termination of Gaussian 16 at Thu Apr 21 15:00:05 2022.

 ----------------------------------------------------------------------
 #N Geom=AllCheck Guess=TCheck SCRF=Check Test GenChk RB3LYP/6-311++G(d
 ,p) Freq
 ----------------------------------------------------------------------

 Structure from the checkpoint file:  "MAA1-VI1-5.chk"
 ----------------
 MAA1-VI1 geo opt
 ----------------
 Charge =  0 Multiplicity = 1

 SCF Done:  E(RB3LYP) =  -610.319673703     A.U. after    1 cycles

  Exact polarizability: 196.906  -0.829 126.944   0.023   0.005  77.252
 Approx polarizability: 267.113  -6.071 189.607   0.028   0.011 115.421

                      1                      2                      3
                      A                      A                      A
 Frequencies --      6.1687                22.6312                33.0023
 Red. masses --      3.9052                 4.5275                 4.5799
 Frc consts  --      0.0001                 0.0014                 0.0029
 IR Inten    --      1.2485                 0.3711                 1.0516

                      4                      5                      6
                      A                      A                      A
 Frequencies --     35.6402                67.9051                89.7527
 Red. masses --      3.2336                 3.7399                 5.0998
 Frc consts  --      0.0024                 0.0102                 0.0242
 IR Inten    --      0.0198                 0.0516                 1.5759

                      7                      8                      9
                      A                      A                      A
 Frequencies --    104.1177               136.2032               213.3302
 Red. masses --      6.7028                 5.3409                 1.1324
 Frc consts  --      0.0428                 0.0584                 0.0304
 IR Inten    --      3.4114                 0.6061                 0.0728

                     10                     11                     12
                      A                      A                      A
 Frequencies --    219.8824               253.7192               291.7992
 Red. masses --      2.0130                 3.2240                 3.8983
 Frc consts  --      0.0573                 0.1223                 0.1956
 IR Inten    --      1.7012                 2.2359                 2.1987

                     13                     14                     15
                      A                      A                      A
 Frequencies --    355.1537               400.3423               502.4053
 Red. masses --      3.6232                 2.7828                 3.4632
 Frc consts  --      0.2693                 0.2628                 0.5150
 IR Inten    --      0.1681                 3.2889                 3.1205

                     16                     17                     18
                      A                      A                      A
 Frequencies --    523.9036               590.0471               595.8273
 Red. masses --      4.8579                 3.9242                 2.3748
 Frc consts  --      0.7856                 0.8050                 0.4967
 IR Inten    --      5.3529                 3.1776                12.5930

                     19                     20                     21
                      A                      A                      A
 Frequencies --    652.0930               661.9240               673.0286
 Red. masses --      1.7638                 2.3575                 2.9265
 Frc consts  --      0.4419                 0.6086                 0.7810
 IR Inten    --      5.7135                25.0658                17.3350

                     22                     23                     24
                      A                      A                      A
 Frequencies --    710.0456               727.7737               792.9984
 Red. masses --      2.0079                 1.2446                 1.2550
 Frc consts  --      0.5964                 0.3884                 0.4650
 IR Inten    --      2.2795                17.9835               102.1104

                     25                     26                     27
                      A                      A                      A
 Frequencies --    807.1982               807.6695               844.6121
 Red. masses --      7.0536                 1.5342                 1.6295
 Frc consts  --      2.7078                 0.5897                 0.6849
 IR Inten    --      8.6194                 0.7089                 4.5507

                     28                     29                     30
                      A                      A                      A
 Frequencies --    876.0269               899.8145               939.0736
 Red. masses --      1.3467                 1.3524                 5.8284
 Frc consts  --      0.6089                 0.6452                 3.0283
 IR Inten    --      6.4156                58.1536                11.2437

                     31                     32                     33
                      A                      A                      A
 Frequencies --    953.4035               976.5907               985.1404
 Red. masses --      1.8807                 1.3423                 1.1055
 Frc consts  --      1.0072                 0.7542                 0.6321
 IR Inten    --      1.3579                36.4267                20.5892

                     34                     35                     36
                      A                      A                      A
 Frequencies --   1028.5726              1029.5322              1061.6684
 Red. masses --      1.4606                 2.3071                 1.8459
 Frc consts  --      0.9104                 1.4408                 1.2258
 IR Inten    --      5.6029                41.6026                13.1494

                     37                     38                     39
                      A                      A                      A
 Frequencies --   1064.7317              1105.7550              1136.6089
 Red. masses --      1.4243                 1.4809                 1.9952
 Frc consts  --      0.9514                 1.0668                 1.5187
 IR Inten    --      0.0001                30.6250                36.9085

                     40                     41                     42
                      A                      A                      A
 Frequencies --   1202.0978              1247.2799              1274.6738
 Red. masses --      3.0170                 1.6075                 1.5360
 Frc consts  --      2.5687                 1.4735                 1.4704
 IR Inten    --     52.5953               364.7217               119.8429

                     43                     44                     45
                      A                      A                      A
 Frequencies --   1308.9095              1316.5715              1331.5247
 Red. masses --      2.0921                 2.8154                 2.2710
 Frc consts  --      2.1118                 2.8752                 2.3722
 IR Inten    --    124.2833                72.6845               505.4922

                     46                     47                     48
                      A                      A                      A
 Frequencies --   1356.9902              1410.7809              1414.4138
 Red. masses --      2.0176                 1.1849                 3.3032
 Frc consts  --      2.1889                 1.3895                 3.8935
 IR Inten    --     56.2814                26.5783                 8.5909

                     49                     50                     51
                      A                      A                      A
 Frequencies --   1432.9624              1458.1495              1482.5788
 Red. masses --      1.2619                 1.3120                 1.0433
 Frc consts  --      1.5267                 1.6435                 1.3511
 IR Inten    --      7.2561                 6.7817                 8.0980

                     52                     53                     54
                      A                      A                      A
 Frequencies --   1496.6915              1522.5740              1557.2615
 Red. masses --      1.0591                 3.5559                 4.2857
 Frc consts  --      1.3978                 4.8569                 6.1235
 IR Inten    --     46.1763               125.5390                54.7006

                     55                     56                     57
                      A                      A                      A
 Frequencies --   1689.1945              1710.1331              1786.5985
 Red. masses --      5.6074                 4.6078                 9.7812
 Frc consts  --      9.4269                 7.9398                18.3948
 IR Inten    --     40.3495               127.7434               275.3354

                     58                     59                     60
                      A                      A                      A
 Frequencies --   3024.2158              3075.9868              3106.1665
 Red. masses --      1.0363                 1.1000                 1.1008
 Frc consts  --      5.5840                 6.1321                 6.2577
 IR Inten    --     19.3276                11.9582                21.4823

                     61                     62                     63
                      A                      A                      A
 Frequencies --   3142.3943              3165.9348              3191.1475
 Red. masses --      1.0604                 1.0591                 1.0942
 Frc consts  --      6.1691                 6.2544                 6.5650
 IR Inten    --     12.3136                 2.7709                 3.1735

                     64                     65                     66
                      A                      A                      A
 Frequencies --   3238.0562              3245.8320              3254.0052
 Red. masses --      1.1159                 1.0971                 1.1124
 Frc consts  --      6.8938                 6.8097                 6.9397
 IR Inten    --      1.5409                 4.7555                 2.2938

                     67                     68                     69
                      A                      A                      A
 Frequencies --   3256.4478              3291.7450              3363.2644
 Red. masses --      1.0989                 1.1036                 1.0737
 Frc consts  --      6.8659                 7.0453                 7.1554
 IR Inten    --     13.3327                 0.0443              1582.8096

 - Thermochemistry -
 -------------------
 Temperature   298.150 Kelvin.  Pressure   1.00000 Atm.
 Atom     1 has atomic number  6 and mass  12.00000

 Molecular mass:   180.08988 amu.
 Principal axes and moments of inertia in atomic units:
                           1         2         3
     Eigenvalues --   826.112426371.178087186.13195
           X            0.99993  -0.01155   0.00001
           Y            0.01155   0.99993   0.00005
           Z           -0.00001  -0.00005   1.00000
 This molecule is an asymmetric top.
 Rotational symmetry number  1.
 Warning -- assumption of classical behavior for rotation
           may cause significant error
 Rotational temperatures (Kelvin)      0.10485     0.01359     0.01205
 Rotational constants (GHZ):           2.18462     0.28327     0.25114
 Zero-point vibrational energy     523549.7 (Joules/Mol)
                                  125.13138 (Kcal/Mol)
 Warning -- explicit consideration of  18 degrees of freedom as
           vibrations may cause significant error
 Vibrational temperatures:      8.88    32.56    47.48    51.28    97.70
          (Kelvin)            129.13   149.80   195.97   306.93   316.36
                              365.05   419.83   510.99   576.00   722.85
                              753.78   848.95   857.26   938.22   952.36
                              968.34  1021.60  1047.10  1140.95  1161.38
                             1162.06  1215.21  1260.41  1294.63  1351.12
                             1371.73  1405.10  1417.40  1479.89  1481.27
                             1527.50  1531.91  1590.93  1635.33  1729.55
                             1794.56  1833.97  1883.23  1894.25  1915.77
                             1952.41  2029.80  2035.03  2061.71  2097.95
                             2133.10  2153.41  2190.64  2240.55  2430.37
                             2460.50  2570.52  4351.17  4425.66  4469.08
                             4521.20  4555.07  4591.35  4658.84  4670.03
                             4681.79  4685.30  4736.09  4838.99

 Zero-point correction=                           0.199410 (Hartree/Particle)
 Thermal correction to Energy=                    0.213636
 Thermal correction to Enthalpy=                  0.214580
 Thermal correction to Gibbs Free Energy=         0.153099
 Sum of electronic and zero-point Energies=           -610.120264
 Sum of electronic and thermal Energies=              -610.106038
 Sum of electronic and thermal Enthalpies=            -610.105094
 Sum of electronic and thermal Free Energies=         -610.166575

                     E (Thermal)             CV                S
                      KCal/Mol        Cal/Mol-Kelvin    Cal/Mol-Kelvin
 Total                  134.058             49.557            129.398
 Electronic               0.000              0.000              0.000
 Translational            0.889              2.981             41.472
 Rotational               0.889              2.981             32.003
 Vibrational            132.281             43.595             55.923
 Vibration     1          0.593              1.987              8.971
 Vibration     2          0.593              1.985              6.389
 Vibration     3          0.594              1.983              5.640
 Vibration     4          0.594              1.982              5.488
 Vibration     5          0.598              1.970              4.213
 Vibration     6          0.602              1.956              3.665
 Vibration     7          0.605              1.946              3.376
 Vibration     8          0.614              1.917              2.857
 Vibration     9          0.644              1.821              2.015
 Vibration    10          0.647              1.811              1.960
 Vibration    11          0.665              1.757              1.705
 Vibration    12          0.687              1.689              1.464
 Vibration    13          0.731              1.565              1.143
 Vibration    14          0.766              1.469              0.961
 Vibration    15          0.858              1.245              0.652
 Vibration    16          0.879              1.197              0.601
 Vibration    17          0.947              1.053              0.467
 Vibration    18          0.954              1.041              0.457

                           ! Non-Optimized Parameters !
 Normal termination of Gaussian 16 at Thu Apr 21 15:02:44 2022.
 Gaussian 16:  ES64L-G16RevA.03 25-Dec-2016

 ----------------------------------------------------------------------
 #P B3LYP/6-311++G(d,p) Geom=Allcheck SCF=Tight EmpiricalDispersion=GD3
 BJ Pop=CHELPG SP IOp(6/33=2)
 ----------------------------------------------------------------------

 Structure from the checkpoint file:  "MAA1-VI1-5.chk"
 ----------------
 MAA1-VI1 geo opt
 ----------------
 Charge =  0 Multiplicity = 1

                         Standard orientation:
 ---------------------------------------------------------------------
 Center     Atomic      Atomic             Coordinates (Angstroms)
 Number     Number       Type             X           Y           Z
 ---------------------------------------------------------------------
      1          6           0       -1.876998    1.639417    0.001262
      2          6           0       -3.141913    0.823001   -0.000395
      3          6           0       -4.354300    1.380837   -0.002675
      4          6           0       -3.079872   -0.689315    0.000541
      5          8           0       -4.072480   -1.377637    0.000190
      6          8           0       -1.867266   -1.264377    0.001969
      7          1           0       -1.262340    1.426379   -0.878366
      8          1           0       -1.264412    1.426157    0.882281
      9          1           0       -2.115022    2.704128    0.001110
     10          1           0       -4.478718    2.457811   -0.003409
     11          1           0       -5.240645    0.759418   -0.003841
     12          1           0       -1.080131   -0.668635    0.001476
     13          6           0        5.283983    0.528214   -0.000466
     14          6           0        4.025566    0.956218    0.000303
     15          7           0        2.880168    0.138733   -0.000092
     16          6           0        2.800475   -1.247123   -0.001460
     17          6           0        1.467646   -1.544414   -0.001057
     18          7           0        0.722919   -0.379905    0.000536
     19          6           0        1.589984    0.604135    0.001067
     20          1           0        6.090832    1.247433   -0.000083
     21          1           0        5.550661   -0.520404   -0.001467
     22          1           0        3.783808    2.012080    0.001332
     23          1           0        3.674245   -1.873181   -0.002625
     24          1           0        0.990577   -2.510906   -0.001783
     25          1           0        1.360077    1.658222    0.002277
 ---------------------------------------------------------------------

 SCF Done:  E(RB3LYP) =  -610.319673703     A.U. after   14 cycles

 The electronic state is 1-A.
 Alpha  occ. eigenvalues --  -19.13567 -19.08239 -14.41606 -14.33550 -10.28467
 Alpha  occ. eigenvalues --  -10.26257 -10.25560 -10.22980 -10.21744 -10.20342
 Alpha  occ. eigenvalues --  -10.19108 -10.17740 -10.17181  -1.07778  -1.06173
 Alpha  occ. eigenvalues --   -0.99570  -0.93314  -0.80903  -0.80581  -0.78268
 Alpha  occ. eigenvalues --   -0.70001  -0.67461  -0.63752  -0.62834  -0.60631
 Alpha  occ. eigenvalues --   -0.58265  -0.56264  -0.49744  -0.49467  -0.48378
 Alpha  occ. eigenvalues --   -0.48290  -0.46171  -0.45111  -0.44923  -0.44359
 Alpha  occ. eigenvalues --   -0.42704  -0.41843  -0.40986  -0.40437  -0.37873
 Alpha  occ. eigenvalues --   -0.36626  -0.35269  -0.31806  -0.30275  -0.28277
 Alpha  occ. eigenvalues --   -0.26742  -0.26494  -0.25902
 Alpha virt. eigenvalues --   -0.05983  -0.04048  -0.02206  -0.01041  -0.00396
 Alpha virt. eigenvalues --   -0.00252   0.00964   0.02036   0.02248   0.02550
 Alpha virt. eigenvalues --    0.03319   0.03536   0.03908   0.04753   0.04904

 Mulliken charges:
               1
     1  C   -1.118722
     2  C    1.165838
     3  C   -0.484231
     4  C   -0.307389
     5  O   -0.288012
     6  O   -0.333329
     7  H    0.183229
     8  H    0.183666
     9  H    0.150580
    10  H    0.122764
    11  H    0.186226
    12  H    0.591435
    13  C   -0.392467
    14  C    0.099556
    15  N    0.207514
    16  C   -0.124822
    17  C   -0.218406
    18  N   -0.329424
    19  C   -0.214313
    20  H    0.173609
    21  H    0.126719
    22  H    0.145048
    23  H    0.140354
    24  H    0.181442
    25  H    0.153134
 Sum of Mulliken charges =  -0.00000

 Dipole moment (field-independent basis, Debye):
    X=              8.0434    Y=              4.5534    Z=             -0.0027  Tot=              9.2428
 Quadrupole moment (field-independent basis, Debye-Ang):
   XX=            -77.8605   YY=            -74.6438   ZZ=            -82.3614
   XY=            -13.5113   XZ=              0.0068   YZ=              0.0154

 ESP charges:
               1
     1  C    0.104347
     2  C   -0.094790
     3  C   -0.338905
     4  C    0.787606
     5  O   -0.580736
     6  O   -0.586253
     7  H   -0.030682
     8  H   -0.030401
     9  H    0.012449
    10  H    0.147521
    11  H    0.156760
    12  H    0.278247
    13  C   -0.324972
    14  C   -0.144654
    15  N    0.257131
    16  C   -0.246691
    17  C   -0.023254
    18  N   -0.186065
    19  C   -0.051996
    20  H    0.149481
    21  H    0.160049
    22  H    0.150007
    23  H    0.171736
    24  H    0.134565
    25  H    0.129498
 Sum of ESP charges =   0.00000

 Normal termination of Gaussian 16 at Thu Apr 21 15:08:11 2022.
