 Gaussian 16, Revision A.03,

 ---------------------------------------------------------------------
 #n B3LYP/6-311++G(d,p) Opt freq EmpiricalDispersion=GD3BJ IOp(6/33=2)
 ---------------------------------------------------------------------

 ----------------
 MAA1-VI1 geo opt
 ----------------
 Symbolic Z-matrix:
 Charge =  0 Multiplicity = 1

 SCF Done:  E(RB3LYP) =  -610.258238820     A.U. after   15 cycles
 SCF Done:  E(RB3LYP) =  -610.291615844     A.U. after   13 cycles
 SCF Done:  E(RB3LYP) =  -610.305391243     A.U. after   13 cycles
 SCF Done:  E(RB3LYP) =  -610.307767487     A.U. after   15 cycles
 SCF Done:  E(RB3LYP) =  -610.307151354     A.U. after   15 cycles
 SCF Done:  E(RB3LYP) =  -610.314129427     A.U. after   13 cycles
 SCF Done:  E(RB3LYP) =  -610.315659779     A.U. after   12 cycles
 SCF Done:  E(RB3LYP) =  -610.315967432     A.U. after   10 cycles
 SCF Done:  E(RB3LYP) =  -610.316831652     A.U. after   11 cycles
 SCF Done:  E(RB3LYP) =  -610.319439427     A.U. after   13 cycles
 SCF Done:  E(RB3LYP) =  -610.323384776     A.U. after    9 cycles
 SCF Done:  E(RB3LYP) =  -610.323387475     A.U. after   10 cycles
 SCF Done:  E(RB3LYP) =  -610.323388747     A.U. after    9 cycles
 SCF Done:  E(RB3LYP) =  -610.323389247     A.U. after    9 cycles
 SCF Done:  E(RB3LYP) =  -610.323389391     A.U. after    9 cycles
 SCF Done:  E(RB3LYP) =  -610.323389450     A.U. after    8 cycles
 SCF Done:  E(RB3LYP) =  -610.323389486     A.U. after    8 cycles
 SCF Done:  E(RB3LYP) =  -610.323389515     A.U. after    8 cycles
 Optimization completed.
    -- Stationary point found.
 Normal termination of Gaussian 16 at Tue Dec  7 17:44:17 2021.

 ----------------------------------------------------------------------
 #N Geom=AllCheck Guess=TCheck SCRF=Check Test GenChk RB3LYP/6-311++G(d
 ,p) Freq
 ----------------------------------------------------------------------

 Structure from the checkpoint file:  "MAA1-VI1-1.chk"
 ----------------
 MAA1-VI1 geo opt
 ----------------
 Charge =  0 Multiplicity = 1

 SCF Done:  E(RB3LYP) =  -610.323389515     A.U. after    1 cycles

  Exact polarizability: 186.304  -6.071 123.971   6.989  -1.605  90.576
 Approx polarizability: 249.185 -23.678 191.756  12.023  -4.688 138.954

                      1                      2                      3
                      A                      A                      A
 Frequencies --     16.7204                21.4718                33.4767
 Red. masses --      4.2605                 3.9428                 4.0139
 Frc consts  --      0.0007                 0.0011                 0.0027
 IR Inten    --      0.9220                 0.2532                 1.7408

                      4                      5                      6
                      A                      A                      A
 Frequencies --     63.9415                70.8539                97.7788
 Red. masses --      4.0559                 3.4958                 5.7200
 Frc consts  --      0.0098                 0.0103                 0.0322
 IR Inten    --      0.0886                 0.2017                 1.9914

                      7                      8                      9
                      A                      A                      A
 Frequencies --    106.3687               152.2310               172.9579
 Red. masses --      4.3096                 4.2226                 1.1585
 Frc consts  --      0.0287                 0.0577                 0.0204
 IR Inten    --      1.1206                 4.9917                 0.4064

                     10                     11                     12
                      A                      A                      A
 Frequencies --    221.0550               252.9052               278.6968
 Red. masses --      2.4932                 3.2521                 3.9124
 Frc consts  --      0.0718                 0.1226                 0.1790
 IR Inten    --      0.9988                 0.1723                 7.0618

                     13                     14                     15
                      A                      A                      A
 Frequencies --    337.5243               381.3919               500.9112
 Red. masses --      3.9011                 2.8071                 3.4611
 Frc consts  --      0.2618                 0.2406                 0.5117
 IR Inten    --      2.0869                 0.8869                 1.0196

                     16                     17                     18
                      A                      A                      A
 Frequencies --    549.1948               593.8850               596.9964
 Red. masses --      3.3198                 3.9814                 2.3785
 Frc consts  --      0.5899                 0.8273                 0.4995
 IR Inten    --      2.8033                14.4467                12.3291

                     19                     20                     21
                      A                      A                      A
 Frequencies --    661.3354               672.5587               674.1606
 Red. masses --      3.2288                 2.9212                 1.4809
 Frc consts  --      0.8320                 0.7785                 0.3965
 IR Inten    --      9.4554                18.2031                15.9964

                     22                     23                     24
                      A                      A                      A
 Frequencies --    712.0550               727.9033               810.3044
 Red. masses --      2.0134                 1.2485                 5.8209
 Frc consts  --      0.6015                 0.3897                 2.2518
 IR Inten    --      1.7172                20.2218                17.7159

                     25                     26                     27
                      A                      A                      A
 Frequencies --    816.2777               823.1717               872.9619
 Red. masses --      1.5051                 2.4513                 1.3433
 Frc consts  --      0.5909                 0.9787                 0.6031
 IR Inten    --     31.3329                13.2491                 6.0934

                     28                     29                     30
                      A                      A                      A
 Frequencies --    901.2465               919.7177               944.5441
 Red. masses --      1.3511                 1.1505                 4.8576
 Frc consts  --      0.6466                 0.5734                 2.5534
 IR Inten    --     54.5627                62.2872                29.7403

                     31                     32                     33
                      A                      A                      A
 Frequencies --    952.5966               957.7356               986.2079
 Red. masses --      1.3696                 1.8242                 1.1070
 Frc consts  --      0.7323                 0.9859                 0.6344
 IR Inten    --     46.0898                 1.0070                20.2340

                     34                     35                     36
                      A                      A                      A
 Frequencies --   1026.0881              1028.7853              1061.5409
 Red. masses --      1.3828                 2.5182                 1.8160
 Frc consts  --      0.8578                 1.5703                 1.2057
 IR Inten    --      7.9037                42.4087                16.2277

                     37                     38                     39
                      A                      A                      A
 Frequencies --   1071.7326              1106.5826              1136.6465
 Red. masses --      1.4957                 1.4327                 2.0606
 Frc consts  --      1.0122                 1.0337                 1.5685
 IR Inten    --      0.5485                56.4294                41.9970

                     40                     41                     42
                      A                      A                      A
 Frequencies --   1196.6081              1254.5480              1308.4947
 Red. masses --      3.4704                 1.5366                 2.0623
 Frc consts  --      2.9278                 1.4249                 2.0804
 IR Inten    --    106.9513                28.8202                45.8057

                     43                     44                     45
                      A                      A                      A
 Frequencies --   1316.9318              1324.7604              1354.4253
 Red. masses --      2.4676                 2.3114                 2.1037
 Frc consts  --      2.5215                 2.3901                 2.2738
 IR Inten    --     13.8007                26.6832                13.5844

                     46                     47                     48
                      A                      A                      A
 Frequencies --   1397.4209              1409.7550              1413.9013
 Red. masses --      1.5682                 1.3111                 2.9674
 Frc consts  --      1.8043                 1.5352                 3.4951
 IR Inten    --    575.8403                 6.9180                70.1882

                     49                     50                     51
                      A                      A                      A
 Frequencies --   1445.9444              1458.1608              1471.8605
 Red. masses --      1.2106                 1.3145                 1.0457
 Frc consts  --      1.4913                 1.6468                 1.3347
 IR Inten    --      3.1897                 4.5315                 9.5717

                     52                     53                     54
                      A                      A                      A
 Frequencies --   1494.9081              1523.3541              1553.5805
 Red. masses --      1.0583                 3.5538                 4.3449
 Frc consts  --      1.3935                 4.8589                 6.1786
 IR Inten    --     14.2939               130.4657                80.5285

                     55                     56                     57
                      A                      A                      A
 Frequencies --   1693.2156              1710.4677              1784.0225
 Red. masses --      5.0356                 4.5986                 9.2397
 Frc consts  --      8.5060                 7.9269                17.3263
 IR Inten    --     32.5013               124.2657               360.4499

                     58                     59                     60
                      A                      A                      A
 Frequencies --   3031.2157              3087.6266              3115.3376
 Red. masses --      1.0374                 1.0965                 1.1034
 Frc consts  --      5.6159                 6.1590                 6.3098
 IR Inten    --     19.3166                13.6045                11.6887

                     61                     62                     63
                      A                      A                      A
 Frequencies --   3135.9781              3165.8687              3193.1255
 Red. masses --      1.0614                 1.0592                 1.0942
 Frc consts  --      6.1498                 6.2551                 6.5734
 IR Inten    --      6.5604                 3.6127                 7.5769

                     64                     65                     66
                      A                      A                      A
 Frequencies --   3221.7159              3224.6246              3250.2967
 Red. masses --      1.0761                 1.1128                 1.0972
 Frc consts  --      6.5810                 6.8173                 6.8296
 IR Inten    --   1846.6539                46.0334                21.4563

                     67                     68                     69
                      A                      A                      A
 Frequencies --   3254.0434              3257.8979              3291.8238
 Red. masses --      1.1142                 1.0974                 1.1036
 Frc consts  --      6.9510                 6.8625                 7.0462
 IR Inten    --      4.6686                23.8762                 3.5230

 - Thermochemistry -
 -------------------
 Temperature   298.150 Kelvin.  Pressure   1.00000 Atm.
 Atom     1 has atomic number  6 and mass  12.00000

 Molecular mass:   180.08988 amu.
 Principal axes and moments of inertia in atomic units:
                           1         2         3
     Eigenvalues --   835.591976194.356876796.21012
           X            0.99988   0.01575   0.00105
           Y           -0.01577   0.99979   0.01341
           Z           -0.00084  -0.01343   0.99991
 This molecule is an asymmetric top.
 Rotational symmetry number  1.
 Warning -- assumption of classical behavior for rotation
           may cause significant error
 Rotational temperatures (Kelvin)      0.10366     0.01398     0.01274
 Rotational constants (GHZ):           2.15984     0.29135     0.26555
 Zero-point vibrational energy     524289.9 (Joules/Mol)
                                  125.30830 (Kcal/Mol)
 Warning -- explicit consideration of  18 degrees of freedom as
           vibrations may cause significant error
 Vibrational temperatures:     24.06    30.89    48.17    92.00   101.94
          (Kelvin)            140.68   153.04   219.03   248.85   318.05
                              363.87   400.98   485.62   548.74   720.70
                              790.17   854.47   858.94   951.51   967.66
                              969.97  1024.49  1047.29  1165.85  1174.44
                             1184.36  1256.00  1296.69  1323.27  1358.99
                             1370.57  1377.97  1418.93  1476.31  1480.19
                             1527.32  1541.98  1592.13  1635.38  1721.65
                             1805.01  1882.63  1894.77  1906.03  1948.72
                             2010.58  2028.32  2034.29  2080.39  2097.97
                             2117.68  2150.84  2191.77  2235.26  2436.16
                             2460.98  2566.81  4361.24  4442.41  4482.28
                             4511.97  4554.98  4594.20  4635.33  4639.52
                             4676.45  4681.84  4687.39  4736.20

 Zero-point correction=                           0.199691 (Hartree/Particle)
 Thermal correction to Energy=                    0.213842
 Thermal correction to Enthalpy=                  0.214786
 Thermal correction to Gibbs Free Energy=         0.154824
 Sum of electronic and zero-point Energies=           -610.123698
 Sum of electronic and thermal Energies=              -610.109548
 Sum of electronic and thermal Enthalpies=            -610.108604
 Sum of electronic and thermal Free Energies=         -610.168565

                     E (Thermal)             CV                S
                      KCal/Mol        Cal/Mol-Kelvin    Cal/Mol-Kelvin
 Total                  134.188             49.354            126.200
 Electronic               0.000              0.000              0.000
 Translational            0.889              2.981             41.472
 Rotational               0.889              2.981             31.931
 Vibrational            132.410             43.393             52.797
 Vibration     1          0.593              1.986              6.990
 Vibration     2          0.593              1.985              6.493
 Vibration     3          0.594              1.983              5.612
 Vibration     4          0.597              1.972              4.332
 Vibration     5          0.598              1.968              4.129
 Vibration     6          0.603              1.951              3.498
 Vibration     7          0.605              1.944              3.334
 Vibration     8          0.619              1.900              2.644
 Vibration     9          0.626              1.876              2.403
 Vibration    10          0.648              1.809              1.950
 Vibration    11          0.664              1.758              1.710
 Vibration    12          0.679              1.713              1.542
 Vibration    13          0.718              1.601              1.224
 Vibration    14          0.751              1.510              1.034
 Vibration    15          0.856              1.248              0.656
 Vibration    16          0.904              1.141              0.546
 Vibration    17          0.952              1.045              0.460
 Vibration    18          0.955              1.038              0.455

                           ! Non-Optimized Parameters !
 Normal termination of Gaussian 16 at Tue Dec  7 17:47:19 2021.
 Gaussian 16:  AM64L-G16RevA.03 25-Dec-2016

 ----------------------------------------------------------------------
 #P B3LYP/6-311++G(d,p) Geom=Allcheck SCF=Tight EmpiricalDispersion=GD3
 BJ Pop=CHELPG SP IOp(6/33=2)
 ----------------------------------------------------------------------

 Structure from the checkpoint file:  "MAA1-VI1-1.chk"
 ----------------
 MAA1-VI1 geo opt
 ----------------
 Charge =  0 Multiplicity = 1

                         Standard orientation:
 ---------------------------------------------------------------------
 Center     Atomic      Atomic             Coordinates (Angstroms)
 Number     Number       Type             X           Y           Z
 ---------------------------------------------------------------------
      1          6           0        4.004865    1.305034    0.658356
      2          6           0        2.959143    0.601057   -0.158943
      3          6           0        2.212326    1.210342   -1.083127
      4          6           0        2.889729   -0.892477    0.042231
      5          8           0        3.874962   -1.521768    0.352380
      6          8           0        1.714932   -1.498875   -0.159280
      7          1           0        3.802647    1.192761    1.727952
      8          1           0        4.041470    2.368470    0.416471
      9          1           0        4.984825    0.858096    0.478045
     10          1           0        2.326068    2.271084   -1.280612
     11          1           0        1.490248    0.674723   -1.686029
     12          1           0        0.939630   -0.878059   -0.200311
     13          6           0       -5.298889    0.088014    0.224509
     14          6           0       -4.197589   -0.628747    0.025046
     15          7           0       -2.882002   -0.127666    0.020889
     16          6           0       -2.446621    1.174171    0.226597
     17          6           0       -1.085485    1.133731    0.121502
     18          7           0       -0.670884   -0.156408   -0.145553
     19          6           0       -1.760863   -0.885448   -0.197650
     20          1           0       -6.262490   -0.401331    0.207774
     21          1           0       -5.284368    1.154472    0.406838
     22          1           0       -4.237071   -1.695865   -0.155865
     23          1           0       -3.126090    1.983009    0.425357
     24          1           0       -0.377066    1.939631    0.219559
     25          1           0       -1.806445   -1.947375   -0.382452
 ---------------------------------------------------------------------

 SCF Done:  E(RB3LYP) =  -610.323389515     A.U. after   14 cycles

 The electronic state is 1-A.
 Alpha  occ. eigenvalues --  -19.13209 -19.08649 -14.41715 -14.33731 -10.28406
 Alpha  occ. eigenvalues --  -10.26298 -10.25573 -10.23192 -10.22043 -10.20383
 Alpha  occ. eigenvalues --  -10.19269 -10.17460 -10.16389  -1.07746  -1.06313
 Alpha  occ. eigenvalues --   -0.99695  -0.93451  -0.80736  -0.80665  -0.78413
 Alpha  occ. eigenvalues --   -0.69406  -0.67511  -0.63941  -0.62392  -0.60731
 Alpha  occ. eigenvalues --   -0.57944  -0.56402  -0.49942  -0.49553  -0.48506
 Alpha  occ. eigenvalues --   -0.48355  -0.46277  -0.45611  -0.45138  -0.43789
 Alpha  occ. eigenvalues --   -0.41928  -0.41824  -0.40963  -0.40016  -0.37494
 Alpha  occ. eigenvalues --   -0.36646  -0.35660  -0.31604  -0.29926  -0.28368
 Alpha  occ. eigenvalues --   -0.27081  -0.26839  -0.25845
 Alpha virt. eigenvalues --   -0.06066  -0.03478  -0.01986  -0.00898  -0.00330
 Alpha virt. eigenvalues --   -0.00267   0.00972   0.01929   0.02221   0.02338
 Alpha virt. eigenvalues --    0.02925   0.03623   0.04132   0.04457   0.05425

 Mulliken charges:
               1
     1  C   -0.618807
     2  C    0.793530
     3  C   -0.634458
     4  C   -0.186794
     5  O   -0.276425
     6  O   -0.339356
     7  H    0.174306
     8  H    0.129826
     9  H    0.179950
    10  H    0.133366
    11  H    0.143675
    12  H    0.598181
    13  C   -0.370792
    14  C    0.010216
    15  N    0.152015
    16  C   -0.285903
    17  C   -0.091631
    18  N   -0.318162
    19  C   -0.100978
    20  H    0.174736
    21  H    0.125816
    22  H    0.157297
    23  H    0.137511
    24  H    0.157256
    25  H    0.155624
 Sum of Mulliken charges =  -0.00000

 Dipole moment (field-independent basis, Debye):
    X=             -8.0155    Y=              3.7739    Z=             -0.3221  Tot=              8.8654
 Quadrupole moment (field-independent basis, Debye-Ang):
   XX=            -75.9378   YY=            -77.2766   ZZ=            -80.7772
   XY=             15.8441   XZ=             -1.6030   YZ=              2.5255

 ESP charges:
               1
     1  C   -0.065577
     2  C   -0.046978
     3  C   -0.302360
     4  C    0.793263
     5  O   -0.573813
     6  O   -0.592926
     7  H    0.028288
     8  H    0.032362
     9  H    0.045975
    10  H    0.137651
    11  H    0.101050
    12  H    0.263798
    13  C   -0.321589
    14  C   -0.120768
    15  N    0.211159
    16  C   -0.179592
    17  C   -0.073258
    18  N   -0.164298
    19  C   -0.056947
    20  H    0.149145
    21  H    0.156066
    22  H    0.141236
    23  H    0.156201
    24  H    0.120532
    25  H    0.161381
 Sum of ESP charges =  -0.00000

 Normal termination of Gaussian 16 at Tue Dec  7 18:07:55 2021.
