 Gaussian 16, Revision A.03,

 ---------------------------------------------------------------------
 #n B3LYP/6-311++G(d,p) Opt freq EmpiricalDispersion=GD3BJ IOp(6/33=2)
 ---------------------------------------------------------------------

 ----------------
 MAA1-VI1 geo opt
 ----------------
 Symbolic Z-matrix:
 Charge =  0 Multiplicity = 1

 SCF Done:  E(RB3LYP) =  -610.267201453     A.U. after   15 cycles
 SCF Done:  E(RB3LYP) =  -610.301289354     A.U. after   13 cycles
 SCF Done:  E(RB3LYP) =  -610.308859106     A.U. after   13 cycles
 SCF Done:  E(RB3LYP) =  -610.310004323     A.U. after   12 cycles
 SCF Done:  E(RB3LYP) =  -610.310054976     A.U. after   14 cycles
 SCF Done:  E(RB3LYP) =  -610.310201932     A.U. after   13 cycles
 SCF Done:  E(RB3LYP) =  -610.311079183     A.U. after   15 cycles
 SCF Done:  E(RB3LYP) =  -610.312153017     A.U. after   13 cycles
 SCF Done:  E(RB3LYP) =  -610.314632343     A.U. after   14 cycles
 SCF Done:  E(RB3LYP) =  -610.315593329     A.U. after   15 cycles
 SCF Done:  E(RB3LYP) =  -610.321058869     A.U. after    8 cycles
 SCF Done:  E(RB3LYP) =  -610.321059004     A.U. after    8 cycles
 SCF Done:  E(RB3LYP) =  -610.321059146     A.U. after    8 cycles
 SCF Done:  E(RB3LYP) =  -610.321059286     A.U. after    8 cycles
 SCF Done:  E(RB3LYP) =  -610.321059425     A.U. after    8 cycles
 SCF Done:  E(RB3LYP) =  -610.321059596     A.U. after    8 cycles
 SCF Done:  E(RB3LYP) =  -610.321059780     A.U. after    8 cycles
 SCF Done:  E(RB3LYP) =  -610.321059902     A.U. after    8 cycles
 Optimization completed.
    -- Stationary point found.
 Normal termination of Gaussian 16 at Thu Apr 21 10:46:59 2022.

 ----------------------------------------------------------------------
 #N Geom=AllCheck Guess=TCheck SCRF=Check Test GenChk RB3LYP/6-311++G(d
 ,p) Freq
 ----------------------------------------------------------------------

 Structure from the checkpoint file:  "MAA1-VI1-2.chk"
 ----------------
 MAA1-VI1 geo opt
 ----------------
 Charge =  0 Multiplicity = 1

 SCF Done:  E(RB3LYP) =  -610.321059902     A.U. after    1 cycles

  Exact polarizability: 169.438  -9.862 130.156  -5.306  -9.526  94.599
 Approx polarizability: 237.116 -14.090 200.311 -10.218 -22.226 137.791

                      1                      2                      3
                      A                      A                      A
 Frequencies --     20.0206                26.9641                41.6468
 Red. masses --      5.3773                 3.4315                 5.2992
 Frc consts  --      0.0013                 0.0015                 0.0054
 IR Inten    --      1.8025                 0.3268                 0.6750

                      4                      5                      6
                      A                      A                      A
 Frequencies --     55.0671                69.8687                92.5097
 Red. masses --      3.5748                 2.7751                 6.8443
 Frc consts  --      0.0064                 0.0080                 0.0345
 IR Inten    --      0.3688                 0.5262                 0.3902

                      7                      8                      9
                      A                      A                      A
 Frequencies --    117.7209               147.7563               176.3218
 Red. masses --      4.0626                 5.4279                 1.0959
 Frc consts  --      0.0332                 0.0698                 0.0201
 IR Inten    --      1.7193                 5.6871                 1.2914

                     10                     11                     12
                      A                      A                      A
 Frequencies --    220.5744               248.7638               254.4892
 Red. masses --      2.5115                 3.6822                 3.2675
 Frc consts  --      0.0720                 0.1343                 0.1247
 IR Inten    --      0.9608                 3.3501                 2.1832

                     13                     14                     15
                      A                      A                      A
 Frequencies --    292.6941               361.0022               502.2094
 Red. masses --      4.3573                 2.7783                 3.4629
 Frc consts  --      0.2199                 0.2133                 0.5146
 IR Inten    --      6.2674                 2.4021                 1.1962

                     16                     17                     18
                      A                      A                      A
 Frequencies --    573.8876               585.9289               597.5224
 Red. masses --      2.9727                 3.1978                 2.3963
 Frc consts  --      0.5768                 0.6468                 0.5041
 IR Inten    --      0.3810                15.8454                10.8056

                     19                     20                     21
                      A                      A                      A
 Frequencies --    662.5684               672.4339               712.0678
 Red. masses --      3.3664                 2.9285                 1.9618
 Frc consts  --      0.8707                 0.7802                 0.5861
 IR Inten    --     13.4103                16.9585                 4.4402

                     22                     23                     24
                      A                      A                      A
 Frequencies --    715.1693               727.3976               798.5670
 Red. masses --      1.6391                 1.2464                 3.9138
 Frc consts  --      0.4939                 0.3886                 1.4705
 IR Inten    --      3.2382                23.2817                11.4249

                     25                     26                     27
                      A                      A                      A
 Frequencies --    811.5121               831.1348               869.4451
 Red. masses --      3.4685                 1.4289                 1.3577
 Frc consts  --      1.3458                 0.5816                 0.6047
 IR Inten    --     14.9882                23.0585                 4.6509

                     28                     29                     30
                      A                      A                      A
 Frequencies --    901.6037               929.6439               938.2625
 Red. masses --      1.3524                 1.4252                 1.6654
 Frc consts  --      0.6477                 0.7257                 0.8638
 IR Inten    --     56.1992                20.4918                43.6746

                     31                     32                     33
                      A                      A                      A
 Frequencies --    951.5123               957.8542               986.4619
 Red. masses --      2.2243                 1.6544                 1.1064
 Frc consts  --      1.1865                 0.8943                 0.6343
 IR Inten    --     62.6960                 9.5869                19.6316

                     34                     35                     36
                      A                      A                      A
 Frequencies --   1028.9842              1031.7672              1061.5194
 Red. masses --      2.4435                 1.4236                 1.8189
 Frc consts  --      1.5244                 0.8929                 1.2075
 IR Inten    --     36.1326                 5.2918                13.8116

                     37                     38                     39
                      A                      A                      A
 Frequencies --   1073.9569              1107.3542              1137.2028
 Red. masses --      1.4948                 1.4369                 2.0658
 Frc consts  --      1.0158                 1.0381                 1.5740
 IR Inten    --      1.7705                40.4837                46.5564

                     40                     41                     42
                      A                      A                      A
 Frequencies --   1199.2664              1252.8483              1306.1835
 Red. masses --      3.7526                 1.5565                 3.2273
 Frc consts  --      3.1799                 1.4394                 3.2442
 IR Inten    --    119.9273                66.3369                61.5781

                     43                     44                     45
                      A                      A                      A
 Frequencies --   1310.9356              1319.9752              1355.4954
 Red. masses --      2.1987                 2.3945                 2.1064
 Frc consts  --      2.2263                 2.4581                 2.2803
 IR Inten    --     50.3444                 5.2616                 7.7870

                     46                     47                     48
                      A                      A                      A
 Frequencies --   1407.0525              1410.6610              1435.0418
 Red. masses --      1.9738                 1.4951                 1.2823
 Frc consts  --      2.3023                 1.7530                 1.5559
 IR Inten    --     42.9525                 7.8364               125.8384

                     49                     50                     51
                      A                      A                      A
 Frequencies --   1441.8715              1457.9833              1481.1209
 Red. masses --      1.2700                 1.3065                 1.0439
 Frc consts  --      1.5556                 1.6363                 1.3492
 IR Inten    --    158.9345                 7.2190                19.9190

                     52                     53                     54
                      A                      A                      A
 Frequencies --   1495.2923              1521.8977              1555.0206
 Red. masses --      1.0621                 3.6309                 4.1852
 Frc consts  --      1.3992                 4.9549                 5.9626
 IR Inten    --     22.8772               141.8258                51.5734

                     55                     56                     57
                      A                      A                      A
 Frequencies --   1699.4376              1710.6009              1799.9127
 Red. masses --      5.4265                 4.6041                 8.9645
 Frc consts  --      9.2338                 7.9376                17.1111
 IR Inten    --     11.9196               127.7850               407.8827

                     58                     59                     60
                      A                      A                      A
 Frequencies --   3026.5048              3083.8777              3107.4289
 Red. masses --      1.0369                 1.0972                 1.1027
 Frc consts  --      5.5959                 6.1480                 6.2737
 IR Inten    --     18.2170                 9.2580                14.2004

                     61                     62                     63
                      A                      A                      A
 Frequencies --   3126.9294              3165.8892              3189.9684
 Red. masses --      1.0602                 1.0593                 1.0769
 Frc consts  --      6.1076                 6.2553                 6.4567
 IR Inten    --      7.4552                 4.5294              1759.1076

                     64                     65                     66
                      A                      A                      A
 Frequencies --   3193.5737              3216.6927              3249.2225
 Red. masses --      1.0922                 1.1153                 1.0977
 Frc consts  --      6.5632                 6.7990                 6.8277
 IR Inten    --    213.6068                12.1595                 0.5099

                     67                     68                     69
                      A                      A                      A
 Frequencies --   3253.8513              3256.1504              3292.1680
 Red. masses --      1.1111                 1.1010                 1.1036
 Frc consts  --      6.9310                 6.8777                 7.0471
 IR Inten    --      3.0148                 1.0499                 2.1942

 - Thermochemistry -
 -------------------
 Temperature   298.150 Kelvin.  Pressure   1.00000 Atm.
 Atom     1 has atomic number  6 and mass  12.00000

 Molecular mass:   180.08988 amu.
 Principal axes and moments of inertia in atomic units:
                           1         2         3
     Eigenvalues --  1125.798065031.611425584.63313
           X            0.99995   0.00452   0.00860
           Y           -0.00436   0.99981  -0.01894
           Z           -0.00869   0.01891   0.99978
 This molecule is an asymmetric top.
 Rotational symmetry number  1.
 Warning -- assumption of classical behavior for rotation
           may cause significant error
 Rotational temperatures (Kelvin)      0.07694     0.01721     0.01551
 Rotational constants (GHZ):           1.60308     0.35868     0.32316
 Zero-point vibrational energy     524049.4 (Joules/Mol)
                                  125.25082 (Kcal/Mol)
 Warning -- explicit consideration of  18 degrees of freedom as
           vibrations may cause significant error
 Vibrational temperatures:     28.81    38.80    59.92    79.23   100.53
          (Kelvin)            133.10   169.37   212.59   253.69   317.36
                              357.92   366.15   421.12   519.40   722.57
                              825.70   843.02   859.70   953.29   967.48
                             1024.51  1028.97  1046.56  1148.96  1167.58
                             1195.82  1250.94  1297.21  1337.55  1349.95
                             1369.01  1378.14  1419.30  1480.48  1484.48
                             1527.29  1545.18  1593.24  1636.18  1725.48
                             1802.57  1879.31  1886.14  1899.15  1950.26
                             2024.43  2029.63  2064.71  2074.53  2097.71
                             2131.00  2151.39  2189.67  2237.33  2445.11
                             2461.17  2589.67  4354.47  4437.01  4470.90
                             4498.95  4555.01  4589.65  4594.84  4628.10
                             4674.91  4681.57  4684.87  4736.70

 Zero-point correction=                           0.199600 (Hartree/Particle)
 Thermal correction to Energy=                    0.213811
 Thermal correction to Enthalpy=                  0.214755
 Thermal correction to Gibbs Free Energy=         0.155113
 Sum of electronic and zero-point Energies=           -610.121460
 Sum of electronic and thermal Energies=              -610.107249
 Sum of electronic and thermal Enthalpies=            -610.106305
 Sum of electronic and thermal Free Energies=         -610.165947

                     E (Thermal)             CV                S
                      KCal/Mol        Cal/Mol-Kelvin    Cal/Mol-Kelvin
 Total                  134.169             49.404            125.529
 Electronic               0.000              0.000              0.000
 Translational            0.889              2.981             41.472
 Rotational               0.889              2.981             31.826
 Vibrational            132.391             43.443             52.232
 Vibration     1          0.593              1.986              6.632
 Vibration     2          0.593              1.984              6.041
 Vibration     3          0.594              1.981              5.179
 Vibration     4          0.596              1.976              4.627
 Vibration     5          0.598              1.968              4.157
 Vibration     6          0.602              1.955              3.606
 Vibration     7          0.608              1.935              3.137
 Vibration     8          0.617              1.905              2.701
 Vibration     9          0.628              1.872              2.367
 Vibration    10          0.647              1.810              1.954
 Vibration    11          0.662              1.765              1.739
 Vibration    12          0.665              1.755              1.699
 Vibration    13          0.688              1.687              1.458
 Vibration    14          0.735              1.553              1.118
 Vibration    15          0.858              1.245              0.653
 Vibration    16          0.930              1.088              0.497
 Vibration    17          0.943              1.062              0.474
 Vibration    18          0.955              1.037              0.454

                           ! Non-Optimized Parameters !
 Normal termination of Gaussian 16 at Thu Apr 21 10:49:46 2022.
 Gaussian 16:  ES64L-G16RevA.03 25-Dec-2016

 ----------------------------------------------------------------------
 #P B3LYP/6-311++G(d,p) Geom=Allcheck SCF=Tight EmpiricalDispersion=GD3
 BJ Pop=CHELPG SP IOp(6/33=2)
 ----------------------------------------------------------------------

 Structure from the checkpoint file:  "MAA1-VI1-2.chk"
 ----------------
 MAA1-VI1 geo opt
 ----------------
 Charge =  0 Multiplicity = 1

                         Standard orientation:
 ---------------------------------------------------------------------
 Center     Atomic      Atomic             Coordinates (Angstroms)
 Number     Number       Type             X           Y           Z
 ---------------------------------------------------------------------
      1          6           0        1.976964    0.639497    1.778742
      2          6           0        2.345770    0.857855    0.335741
      3          6           0        2.202392    2.019261   -0.302279
      4          6           0        2.961831   -0.313473   -0.396519
      5          8           0        4.075261   -0.275463   -0.859451
      6          8           0        2.205234   -1.415430   -0.474631
      7          1           0        2.861255    0.343361    2.352101
      8          1           0        1.237821   -0.157269    1.888065
      9          1           0        1.572358    1.553502    2.217935
     10          1           0        1.786253    2.887504    0.198849
     11          1           0        2.521163    2.139508   -1.330895
     12          1           0        1.257205   -1.243324   -0.223595
     13          6           0       -4.666109    1.002443   -0.231771
     14          6           0       -3.345813    1.090093   -0.355617
     15          7           0       -2.429238    0.045605   -0.129164
     16          6           0       -2.681462   -1.265288    0.251374
     17          6           0       -1.460312   -1.871519    0.332201
     18          7           0       -0.463780   -0.968805    0.014447
     19          6           0       -1.070193    0.163340   -0.258166
     20          1           0       -5.278264    1.870346   -0.432459
     21          1           0       -5.172390    0.092873    0.063468
     22          1           0       -2.860776    2.011538   -0.653437
     23          1           0       -3.676653   -1.633830    0.422002
     24          1           0       -1.233704   -2.891928    0.594584
     25          1           0       -0.585502    1.084005   -0.543178
 ---------------------------------------------------------------------

 SCF Done:  E(RB3LYP) =  -610.321059902     A.U. after   14 cycles

 The electronic state is 1-A.
 Alpha  occ. eigenvalues --  -19.13483 -19.09001 -14.41858 -14.33946 -10.28668
 Alpha  occ. eigenvalues --  -10.26342 -10.25698 -10.23336 -10.22268 -10.20509
 Alpha  occ. eigenvalues --  -10.19603 -10.17561 -10.17385  -1.08034  -1.06461
 Alpha  occ. eigenvalues --   -1.00009  -0.93603  -0.81186  -0.80789  -0.78554
 Alpha  occ. eigenvalues --   -0.70139  -0.67655  -0.64044  -0.62589  -0.60875
 Alpha  occ. eigenvalues --   -0.58032  -0.56488  -0.49903  -0.49666  -0.48670
 Alpha  occ. eigenvalues --   -0.48603  -0.46464  -0.45950  -0.45326  -0.44242
 Alpha  occ. eigenvalues --   -0.43052  -0.42050  -0.41564  -0.39885  -0.37999
 Alpha  occ. eigenvalues --   -0.36880  -0.36411  -0.31897  -0.30027  -0.28564
 Alpha  occ. eigenvalues --   -0.28116  -0.27003  -0.25131
 Alpha virt. eigenvalues --   -0.06184  -0.02748  -0.01899  -0.01007  -0.00727
 Alpha virt. eigenvalues --   -0.00143   0.01201   0.01415   0.01910   0.02627
 Alpha virt. eigenvalues --    0.02924   0.03038   0.03687   0.04204   0.05075

 Mulliken charges:
               1
     1  C   -0.707123
     2  C    0.716794
     3  C   -0.471172
     4  C   -0.226488
     5  O   -0.261418
     6  O   -0.335785
     7  H    0.175614
     8  H    0.152494
     9  H    0.133754
    10  H    0.127625
    11  H    0.175691
    12  H    0.590169
    13  C   -0.435877
    14  C    0.099967
    15  N    0.223300
    16  C   -0.125210
    17  C   -0.151695
    18  N   -0.330395
    19  C   -0.355892
    20  H    0.174006
    21  H    0.121680
    22  H    0.138749
    23  H    0.144336
    24  H    0.161953
    25  H    0.264923
 Sum of Mulliken charges =  -0.00000

 Dipole moment (field-independent basis, Debye):
    X=             -8.8324    Y=              2.5033    Z=              2.0134  Tot=              9.3985
 Quadrupole moment (field-independent basis, Debye-Ang):
   XX=            -89.7737   YY=            -73.0475   ZZ=            -80.3873
   XY=              5.0727   XZ=              7.9948   YZ=             -4.8413

 ESP charges:
               1
     1  C    0.096451
     2  C   -0.066351
     3  C   -0.365052
     4  C    0.854533
     5  O   -0.598853
     6  O   -0.607523
     7  H   -0.001771
     8  H   -0.027762
     9  H   -0.010534
    10  H    0.153063
    11  H    0.128185
    12  H    0.261679
    13  C   -0.289884
    14  C   -0.195365
    15  N    0.344196
    16  C   -0.293933
    17  C   -0.033367
    18  N   -0.119546
    19  C   -0.132859
    20  H    0.143225
    21  H    0.146372
    22  H    0.168325
    23  H    0.186400
    24  H    0.132617
    25  H    0.127755
 Sum of ESP charges =  -0.00000

 Normal termination of Gaussian 16 at Thu Apr 21 10:55:43 2022.
