 Gaussian 16, Revision A.03,

 ---------------------------------------------------------------------
 #n B3LYP/6-311++G(d,p) Opt freq EmpiricalDispersion=GD3BJ IOp(6/33=2)
 ---------------------------------------------------------------------

 ----------------
 MAA1-AS1 geo opt
 ----------------
 Symbolic Z-matrix:
 Charge =  0 Multiplicity = 1

 SCF Done:  E(RB3LYP) =  -671.695108945     A.U. after   15 cycles
 SCF Done:  E(RB3LYP) =  -671.721878023     A.U. after   14 cycles
 SCF Done:  E(RB3LYP) =  -671.728292659     A.U. after   16 cycles
 SCF Done:  E(RB3LYP) =  -671.732607770     A.U. after   16 cycles
 SCF Done:  E(RB3LYP) =  -671.734310358     A.U. after   15 cycles
 SCF Done:  E(RB3LYP) =  -671.736319833     A.U. after   13 cycles
 SCF Done:  E(RB3LYP) =  -671.737442273     A.U. after   14 cycles
 SCF Done:  E(RB3LYP) =  -671.737866170     A.U. after   13 cycles
 SCF Done:  E(RB3LYP) =  -671.738139882     A.U. after   13 cycles
 SCF Done:  E(RB3LYP) =  -671.738233845     A.U. after   13 cycles
 SCF Done:  E(RB3LYP) =  -671.738680827     A.U. after   11 cycles
 SCF Done:  E(RB3LYP) =  -671.738684791     A.U. after   12 cycles
 SCF Done:  E(RB3LYP) =  -671.738685267     A.U. after   10 cycles
 SCF Done:  E(RB3LYP) =  -671.738685494     A.U. after    9 cycles
 SCF Done:  E(RB3LYP) =  -671.738685701     A.U. after    9 cycles
 SCF Done:  E(RB3LYP) =  -671.738685794     A.U. after    9 cycles
 SCF Done:  E(RB3LYP) =  -671.738685823     A.U. after    8 cycles
 SCF Done:  E(RB3LYP) =  -671.738685825     A.U. after    8 cycles
 Optimization completed.
    -- Stationary point found.
 Normal termination of Gaussian 16 at Thu Apr 21 11:34:05 2022.

 ----------------------------------------------------------------------
 #N Geom=AllCheck Guess=TCheck SCRF=Check Test GenChk RB3LYP/6-311++G(d
 ,p) Freq
 ----------------------------------------------------------------------

 Structure from the checkpoint file:  "MAA1-AS1-2.chk"
 ----------------
 MAA1-AS1 geo opt
 ----------------
 Charge =  0 Multiplicity = 1

 SCF Done:  E(RB3LYP) =  -671.738685825     A.U. after    1 cycles

  Exact polarizability: 218.499 -31.148 171.645 -25.057  -9.999 122.614
 Approx polarizability: 314.320 -53.980 270.174 -54.402 -22.586 200.977

                      1                      2                      3
                      A                      A                      A
 Frequencies --     12.8593                20.5268                29.4090
 Red. masses --      4.6157                 4.6228                 3.8781
 Frc consts  --      0.0004                 0.0011                 0.0020
 IR Inten    --      1.4341                 2.0670                 0.9195

                      4                      5                      6
                      A                      A                      A
 Frequencies --     40.4168                54.3403                66.0121
 Red. masses --      4.3660                 3.0686                 5.4044
 Frc consts  --      0.0042                 0.0053                 0.0139
 IR Inten    --      0.9414                 0.4090                 4.2642

                      7                      8                      9
                      A                      A                      A
 Frequencies --     99.2055               110.2353               155.1667
 Red. masses --      4.4409                 4.7336                 2.8141
 Frc consts  --      0.0258                 0.0339                 0.0399
 IR Inten    --     10.9811                 0.1187                 5.0633

                     10                     11                     12
                      A                      A                      A
 Frequencies --    209.4076               215.8926               284.2856
 Red. masses --      1.0499                 3.3221                 3.5732
 Frc consts  --      0.0271                 0.0912                 0.1701
 IR Inten    --      0.9773                 2.7356                 8.9471

                     13                     14                     15
                      A                      A                      A
 Frequencies --    312.2055               346.2780               386.3277
 Red. masses --      2.9581                 3.2325                 3.3871
 Frc consts  --      0.1699                 0.2284                 0.2978
 IR Inten    --      0.6969                 5.8184                 2.2206

                     16                     17                     18
                      A                      A                      A
 Frequencies --    394.4639               412.8356               419.0246
 Red. masses --      2.6992                 1.2415                 2.1303
 Frc consts  --      0.2475                 0.1247                 0.2204
 IR Inten    --      0.9855                39.0876                13.8482

                     19                     20                     21
                      A                      A                      A
 Frequencies --    430.9641               485.6004               497.3710
 Red. masses --      4.2601                 1.2032                 2.2798
 Frc consts  --      0.4662                 0.1672                 0.3323
 IR Inten    --      2.3877                84.7758                41.8150

                     22                     23                     24
                      A                      A                      A
 Frequencies --    520.2504               536.4486               580.3961
 Red. masses --      3.6238                 3.0705                 3.9227
 Frc consts  --      0.5779                 0.5206                 0.7785
 IR Inten    --      4.9720                30.7425                 0.2738

                     25                     26                     27
                      A                      A                      A
 Frequencies --    614.4956               653.2518               658.7563
 Red. masses --      1.2422                 1.7481                 4.6065
 Frc consts  --      0.2764                 0.4395                 1.1778
 IR Inten    --    324.1799                 1.6591                 4.3852

                     28                     29                     30
                      A                      A                      A
 Frequencies --    663.0781               745.7657               755.8828
 Red. masses --      1.5108                 3.2755                 3.1318
 Frc consts  --      0.3914                 1.0733                 1.0543
 IR Inten    --      9.2446                 1.2858                 1.2830

                     31                     32                     33
                      A                      A                      A
 Frequencies --    789.1719               820.1985               823.1638
 Red. masses --      6.2461                 1.4955                 1.9887
 Frc consts  --      2.2919                 0.5928                 0.7939
 IR Inten    --      8.1978                 1.7007                10.0417

                     34                     35                     36
                      A                      A                      A
 Frequencies --    845.7711               856.7915               901.2686
 Red. masses --      1.7705                 4.7665                 1.3791
 Frc consts  --      0.7462                 2.0616                 0.6600
 IR Inten    --     63.9734                 8.7280                47.2120

                     37                     38                     39
                      A                      A                      A
 Frequencies --    948.6498               949.2719               965.0133
 Red. masses --      1.8085                 1.3510                 1.3418
 Frc consts  --      0.9589                 0.7173                 0.7362
 IR Inten    --      0.5164                 0.3760                 0.3874

                     40                     41                     42
                      A                      A                      A
 Frequencies --    999.9033              1021.1107              1022.8587
 Red. masses --      1.3174                 1.3830                 1.1315
 Frc consts  --      0.7761                 0.8496                 0.6975
 IR Inten    --     36.7162                14.1193                15.4634

                     43                     44                     45
                      A                      A                      A
 Frequencies --   1026.7720              1046.1167              1068.0553
 Red. masses --      2.7462                 1.5074                 1.4744
 Frc consts  --      1.7058                 0.9720                 0.9909
 IR Inten    --      0.2269                 2.8411                 0.0627

                     46                     47                     48
                      A                      A                      A
 Frequencies --   1102.1222              1149.3258              1158.8977
 Red. masses --      1.4690                 2.5634                 1.2136
 Frc consts  --      1.0513                 1.9951                 0.9603
 IR Inten    --      2.9545                68.5320                 7.1810

                     49                     50                     51
                      A                      A                      A
 Frequencies --   1201.1606              1237.1322              1252.0033
 Red. masses --      1.1747                 2.2342                 1.8344
 Frc consts  --      0.9986                 2.0147                 1.6942
 IR Inten    --     42.4756                 6.1049               118.1511

                     52                     53                     54
                      A                      A                      A
 Frequencies --   1318.6755              1324.7601              1328.2830
 Red. masses --      1.9349                 2.9714                 3.0345
 Frc consts  --      1.9824                 3.0724                 3.1544
 IR Inten    --     21.0989               135.9471               368.5373

                     55                     56                     57
                      A                      A                      A
 Frequencies --   1351.3363              1364.1857              1412.0716
 Red. masses --      1.6392                 1.9440                 1.2000
 Frc consts  --      1.7636                 2.1315                 1.4097
 IR Inten    --     18.7581                 1.6875                14.6679

                     58                     59                     60
                      A                      A                      A
 Frequencies --   1439.9130              1450.7130              1475.3130
 Red. masses --      1.2409                 1.4751                 2.1979
 Frc consts  --      1.5159                 1.8291                 2.8185
 IR Inten    --     17.1913                13.7665                 5.1628

                     61                     62                     63
                      A                      A                      A
 Frequencies --   1491.7168              1499.7324              1550.4450
 Red. masses --      1.0427                 1.0528                 2.6477
 Frc consts  --      1.3671                 1.3952                 3.7500
 IR Inten    --     11.5139                17.6578                88.9119

                     64                     65                     66
                      A                      A                      A
 Frequencies --   1606.1659              1652.2683              1676.9770
 Red. masses --      5.4850                 4.0474                 1.7357
 Frc consts  --      8.3370                 6.5100                 2.8759
 IR Inten    --      2.6090               133.9083               165.3002

                     67                     68                     69
                      A                      A                      A
 Frequencies --   1682.8798              1689.3633              1797.8026
 Red. masses --      2.2518                 5.0196                 9.7842
 Frc consts  --      3.7574                 8.4405                18.6321
 IR Inten    --     31.9617                30.4952               257.3458

                     70                     71                     72
                      A                      A                      A
 Frequencies --   3002.3596              3053.9819              3115.6489
 Red. masses --      1.0457                 1.0951                 1.0960
 Frc consts  --      5.5538                 6.0179                 6.2683
 IR Inten    --     25.7224                12.1344                 7.9926

                     73                     74                     75
                      A                      A                      A
 Frequencies --   3121.6248              3140.1724              3151.5696
 Red. masses --      1.0846                 1.0632                 1.0877
 Frc consts  --      6.2268                 6.1771                 6.3653
 IR Inten    --     17.3086                 2.8444                27.2044

                     76                     77                     78
                      A                      A                      A
 Frequencies --   3153.7489              3159.9998              3179.2953
 Red. masses --      1.0880                 1.0621                 1.0921
 Frc consts  --      6.3759                 6.2487                 6.5038
 IR Inten    --      4.8121                 3.3153                17.5445

                     79                     80                     81
                      A                      A                      A
 Frequencies --   3183.4836              3220.4981              3257.5186
 Red. masses --      1.0930                 1.1149                 1.1152
 Frc consts  --      6.5263                 6.8129                 6.9723
 IR Inten    --      6.9162                15.2348                 0.9406

                     82                     83                     84
                      A                      A                      A
 Frequencies --   3534.3983              3659.8453              3809.8320
 Red. masses --      1.0516                 1.0960                 1.0656
 Frc consts  --      7.7397                 8.6498                 9.1129
 IR Inten    --    211.5599                64.8898                64.1170

 - Thermochemistry -
 -------------------
 Temperature   298.150 Kelvin.  Pressure   1.00000 Atm.
 Atom     1 has atomic number  6 and mass  12.00000

 Molecular mass:   205.11028 amu.
 Principal axes and moments of inertia in atomic units:
                           1         2         3
     Eigenvalues --  1821.920586229.721267354.01280
           X            0.99998   0.00678  -0.00064
           Y           -0.00678   0.99987  -0.01477
           Z            0.00054   0.01478   0.99989
 This molecule is an asymmetric top.
 Rotational symmetry number  1.
 Warning -- assumption of classical behavior for rotation
           may cause significant error
 Rotational temperatures (Kelvin)      0.04754     0.01390     0.01178
 Rotational constants (GHZ):           0.99057     0.28970     0.24541
 Zero-point vibrational energy     644503.0 (Joules/Mol)
                                  154.03992 (Kcal/Mol)
 Warning -- explicit consideration of  25 degrees of freedom as
           vibrations may cause significant error
 Vibrational temperatures:     18.50    29.53    42.31    58.15    78.18
          (Kelvin)             94.98   142.73   158.60   223.25   301.29
                              310.62   409.02   449.19   498.22   555.84
                              567.55   593.98   602.88   620.06   698.67
                              715.61   748.52   771.83   835.06   884.12
                              939.88   947.80   954.02  1072.99  1087.55
                             1135.44  1180.08  1184.35  1216.88  1232.73
                             1296.72  1364.90  1365.79  1388.44  1438.64
                             1469.15  1471.67  1477.30  1505.13  1536.69
                             1585.71  1653.62  1667.40  1728.20  1779.96
                             1801.35  1897.28  1906.03  1911.10  1944.27
                             1962.76  2031.66  2071.71  2087.25  2122.65
                             2146.25  2157.78  2230.74  2310.91  2377.25
                             2412.80  2421.29  2430.62  2586.64  4319.73
                             4394.00  4482.72  4491.32  4518.01  4534.41
                             4537.54  4546.53  4574.30  4580.32  4633.58
                             4686.84  5085.21  5265.70  5481.50

 Zero-point correction=                           0.245478 (Hartree/Particle)
 Thermal correction to Energy=                    0.262092
 Thermal correction to Enthalpy=                  0.263036
 Thermal correction to Gibbs Free Energy=         0.197315
 Sum of electronic and zero-point Energies=           -671.493208
 Sum of electronic and thermal Energies=              -671.476594
 Sum of electronic and thermal Enthalpies=            -671.475650
 Sum of electronic and thermal Free Energies=         -671.541371

                     E (Thermal)             CV                S
                      KCal/Mol        Cal/Mol-Kelvin    Cal/Mol-Kelvin
 Total                  164.465             60.342            138.321
 Electronic               0.000              0.000              0.000
 Translational            0.889              2.981             41.859
 Rotational               0.889              2.981             32.790
 Vibrational            162.688             54.380             63.672
 Vibration     1          0.593              1.987              7.511
 Vibration     2          0.593              1.986              6.583
 Vibration     3          0.593              1.984              5.869
 Vibration     4          0.594              1.981              5.239
 Vibration     5          0.596              1.976              4.653
 Vibration     6          0.597              1.970              4.269
 Vibration     7          0.604              1.950              3.470
 Vibration     8          0.606              1.941              3.265
 Vibration     9          0.620              1.897              2.608
 Vibration    10          0.642              1.826              2.049
 Vibration    11          0.645              1.817              1.993
 Vibration    12          0.683              1.703              1.508
 Vibration    13          0.701              1.650              1.351
 Vibration    14          0.724              1.583              1.183
 Vibration    15          0.755              1.499              1.014
 Vibration    16          0.761              1.482              0.983
 Vibration    17          0.777              1.442              0.917
 Vibration    18          0.782              1.429              0.895
 Vibration    19          0.792              1.403              0.856
 Vibration    20          0.842              1.282              0.695
 Vibration    21          0.853              1.256              0.665
 Vibration    22          0.875              1.205              0.609
 Vibration    23          0.891              1.169              0.573
 Vibration    24          0.937              1.074              0.485
 Vibration    25          0.974              1.001              0.425

 Optimization completed.
    -- Stationary point found.
 Normal termination of Gaussian 16 at Thu Apr 21 11:38:18 2022.
 Gaussian 16:  ES64L-G16RevA.03 25-Dec-2016

 ----------------------------------------------------------------------
 #P B3LYP/6-311++G(d,p) Geom=Allcheck SCF=Tight EmpiricalDispersion=GD3
 BJ Pop=CHELPG SP IOp(6/33=2)
 ----------------------------------------------------------------------

 Structure from the checkpoint file:  "MAA1-AS1-2.chk"
 ----------------
 MAA1-AS1 geo opt
 ----------------
 Charge =  0 Multiplicity = 1

                         Standard orientation:
 ---------------------------------------------------------------------
 Center     Atomic      Atomic             Coordinates (Angstroms)
 Number     Number       Type             X           Y           Z
 ---------------------------------------------------------------------
      1          6           0        2.935946    2.410486    0.466240
      2          6           0        2.491921    0.975059    0.597379
      3          6           0        1.453004    0.601284    1.347307
      4          6           0        3.220862   -0.092672   -0.162294
      5          8           0        2.824408   -1.223091   -0.310692
      6          8           0        4.403172    0.263787   -0.724134
      7          1           0        2.919647    2.746223   -0.576101
      8          1           0        3.949771    2.567881    0.855958
      9          1           0        2.275230    3.066027    1.033600
     10          1           0        0.870645    1.325432    1.903985
     11          1           0        1.158289   -0.436211    1.413949
     12          1           0        4.625951    1.177450   -0.509720
     13          6           0       -4.885270    1.621970    0.162835
     14          6           0       -3.725691    1.458547   -0.485152
     15          6           0       -2.749891    0.378024   -0.324858
     16          6           0       -2.928277   -0.702265    0.555293
     17          6           0       -1.974855   -1.697901    0.683438
     18          6           0       -0.786212   -1.662476   -0.068801
     19          6           0       -0.603561   -0.594933   -0.961901
     20          6           0       -1.566143    0.396973   -1.077675
     21          7           0        0.166402   -2.661520    0.039452
     22          1           0       -5.525425    2.469304   -0.049130
     23          1           0       -5.237101    0.926541    0.916669
     24          1           0       -3.450089    2.205802   -1.226918
     25          1           0       -3.829565   -0.765873    1.153659
     26          1           0       -2.141903   -2.518526    1.374041
     27          1           0        0.299552   -0.555392   -1.559085
     28          1           0       -1.399700    1.212914   -1.774034
     29          1           0        1.118878   -2.398610   -0.184494
     30          1           0        0.089362   -3.270477    0.839224
 ---------------------------------------------------------------------

 SCF Done:  E(RB3LYP) =  -671.738685825     A.U. after   15 cycles

 The electronic state is 1-A.
 Alpha  occ. eigenvalues --  -19.18865 -19.12694 -14.31197 -10.32575 -10.21779
 Alpha  occ. eigenvalues --  -10.21320 -10.20579 -10.20050 -10.17253 -10.17202
 Alpha  occ. eigenvalues --  -10.17161 -10.17026 -10.16807 -10.16402 -10.15656
 Alpha  occ. eigenvalues --   -1.12603  -1.04372  -0.91911  -0.84568  -0.83854
 Alpha  occ. eigenvalues --   -0.77651  -0.74688  -0.72806  -0.71062  -0.66688
 Alpha  occ. eigenvalues --   -0.62201  -0.61883  -0.60945  -0.55834  -0.52643
 Alpha  occ. eigenvalues --   -0.52259  -0.51384  -0.48956  -0.48000  -0.47653
 Alpha  occ. eigenvalues --   -0.46079  -0.44682  -0.44372  -0.43817  -0.43318
 Alpha  occ. eigenvalues --   -0.42004  -0.41333  -0.40857  -0.39336  -0.38435
 Alpha  occ. eigenvalues --   -0.38051  -0.35067  -0.34572  -0.33555  -0.33135
 Alpha  occ. eigenvalues --   -0.30430  -0.29537  -0.26753  -0.25391  -0.19472
 Alpha virt. eigenvalues --   -0.07126  -0.03143  -0.02747  -0.01114  -0.00259
 Alpha virt. eigenvalues --    0.00067   0.00698   0.01151   0.01701   0.02325
 Alpha virt. eigenvalues --    0.02795   0.03341   0.03650   0.04447   0.04727

 Mulliken charges:
               1
     1  C   -0.619632
     2  C    0.852119
     3  C   -0.509957
     4  C   -0.401350
     5  O   -0.336193
     6  O   -0.117491
     7  H    0.191782
     8  H    0.137299
     9  H    0.176156
    10  H    0.150138
    11  H    0.183122
    12  H    0.255816
    13  C   -0.449880
    14  C   -0.431891
    15  C    1.100897
    16  C   -1.121585
    17  C   -0.049027
    18  C   -0.491587
    19  C    0.129281
    20  C    0.160450
    21  N   -0.353183
    22  H    0.152770
    23  H    0.116538
    24  H    0.124622
    25  H    0.079882
    26  H    0.175618
    27  H    0.162900
    28  H    0.174742
    29  H    0.325467
    30  H    0.232177
 Sum of Mulliken charges =  -0.00000

 Dipole moment (field-independent basis, Debye):
    X=              2.2030    Y=              3.5301    Z=              2.4403  Tot=              4.8239
 Quadrupole moment (field-independent basis, Debye-Ang):
   XX=            -93.0546   YY=            -85.5965   ZZ=            -90.6287
   XY=             13.7962   XZ=              0.5523   YZ=             -7.5648

 ESP charges:
               1
     1  C   -0.044469
     2  C   -0.143599
     3  C   -0.164328
     4  C    0.791876
     5  O   -0.556005
     6  O   -0.619022
     7  H    0.030294
     8  H    0.003288
     9  H    0.070229
    10  H    0.113403
    11  H    0.052456
    12  H    0.416354
    13  C   -0.330930
    14  C   -0.151715
    15  C    0.179566
    16  C   -0.148041
    17  C   -0.307784
    18  C    0.597541
    19  C   -0.220635
    20  C   -0.223220
    21  N   -1.042654
    22  H    0.121801
    23  H    0.124305
    24  H    0.108495
    25  H    0.123926
    26  H    0.126142
    27  H    0.124400
    28  H    0.112860
    29  H    0.457083
    30  H    0.398383
 Sum of ESP charges =   0.00000

 Normal termination of Gaussian 16 at Thu Apr 21 11:48:36 2022.
