 Gaussian 16, Revision A.03,

 ---------------------------------------------------------------------
 #n B3LYP/6-311++G(d,p) Opt freq EmpiricalDispersion=GD3BJ IOp(6/33=2)
 ---------------------------------------------------------------------

 ----------------
 MAA1-AS1 geo opt
 ----------------
 Symbolic Z-matrix:
 Charge =  0 Multiplicity = 1

 SCF Done:  E(RB3LYP) =  -671.687971132     A.U. after   15 cycles
 SCF Done:  E(RB3LYP) =  -671.715428625     A.U. after   14 cycles
 SCF Done:  E(RB3LYP) =  -671.724395127     A.U. after   16 cycles
 SCF Done:  E(RB3LYP) =  -671.723550102     A.U. after   16 cycles
 SCF Done:  E(RB3LYP) =  -671.720933144     A.U. after   15 cycles
 SCF Done:  E(RB3LYP) =  -671.707859996     A.U. after   15 cycles
 SCF Done:  E(RB3LYP) =  -671.724972480     A.U. after   12 cycles
 SCF Done:  E(RB3LYP) =  -671.732054943     A.U. after   16 cycles
 SCF Done:  E(RB3LYP) =  -671.735073403     A.U. after   16 cycles
 SCF Done:  E(RB3LYP) =  -671.728804468     A.U. after   17 cycles
 SCF Done:  E(RB3LYP) =  -671.740460815     A.U. after   11 cycles
 SCF Done:  E(RB3LYP) =  -671.740461010     A.U. after   10 cycles
 SCF Done:  E(RB3LYP) =  -671.740461164     A.U. after   10 cycles
 SCF Done:  E(RB3LYP) =  -671.740461220     A.U. after    9 cycles
 SCF Done:  E(RB3LYP) =  -671.740461282     A.U. after    9 cycles
 SCF Done:  E(RB3LYP) =  -671.740461343     A.U. after    9 cycles
 SCF Done:  E(RB3LYP) =  -671.740461430     A.U. after    9 cycles
 SCF Done:  E(RB3LYP) =  -671.740461472     A.U. after    9 cycles
 Optimization completed.
    -- Stationary point found.
 Normal termination of Gaussian 16 at Thu Apr 21 11:20:23 2022.

 ----------------------------------------------------------------------
 #N Geom=AllCheck Guess=TCheck SCRF=Check Test GenChk RB3LYP/6-311++G(d
 ,p) Freq
 ----------------------------------------------------------------------

 Structure from the checkpoint file:  "MAA1-AS1-4.chk"
 ----------------
 MAA1-AS1 geo opt
 ----------------
 Charge =  0 Multiplicity = 1

 SCF Done:  E(RB3LYP) =  -671.740461472     A.U. after    1 cycles

  Exact polarizability: 195.103 -38.325 180.528  22.587  13.021 123.584
 Approx polarizability: 283.669 -70.966 303.101  45.157  31.439 198.334

                      1                      2                      3
                      A                      A                      A
 Frequencies --     10.5531                17.7690                39.8643
 Red. masses --      5.1653                 4.6153                 4.4155
 Frc consts  --      0.0003                 0.0009                 0.0041
 IR Inten    --      1.2324                 0.7484                 1.0805

                      4                      5                      6
                      A                      A                      A
 Frequencies --     45.7528                53.7340                64.6460
 Red. masses --      3.9490                 3.0890                 3.9467
 Frc consts  --      0.0049                 0.0053                 0.0097
 IR Inten    --      3.4312                 0.3585                 1.5309

                      7                      8                      9
                      A                      A                      A
 Frequencies --    110.1413               113.9383               141.0063
 Red. masses --      3.7938                 5.5155                 1.0979
 Frc consts  --      0.0271                 0.0422                 0.0129
 IR Inten    --      7.4074                 2.2727                 1.0331

                     10                     11                     12
                      A                      A                      A
 Frequencies --    156.5938               214.1101               265.4686
 Red. masses --      2.5815                 3.3287                 3.8712
 Frc consts  --      0.0373                 0.0899                 0.1607
 IR Inten    --      7.7900                 1.6446                10.2528

                     13                     14                     15
                      A                      A                      A
 Frequencies --    313.0691               323.6463               371.6295
 Red. masses --      2.9640                 3.5467                 1.0737
 Frc consts  --      0.1712                 0.2189                 0.0874
 IR Inten    --      0.9415                 5.8465                11.1962

                     16                     17                     18
                      A                      A                      A
 Frequencies --    380.1974               384.3784               418.9451
 Red. masses --      2.7839                 3.0440                 2.9968
 Frc consts  --      0.2371                 0.2650                 0.3099
 IR Inten    --      2.9719                 2.5737                 0.6096

                     19                     20                     21
                      A                      A                      A
 Frequencies --    430.4603               494.3176               530.4920
 Red. masses --      4.2908                 2.2385                 2.2978
 Frc consts  --      0.4684                 0.3223                 0.3810
 IR Inten    --      1.8788                53.4587                24.3091

                     22                     23                     24
                      A                      A                      A
 Frequencies --    536.8024               540.5201               587.4044
 Red. masses --      3.1220                 1.2484                 4.1517
 Frc consts  --      0.5300                 0.2149                 0.8440
 IR Inten    --     21.5879                69.5012                 3.5234

                     25                     26                     27
                      A                      A                      A
 Frequencies --    648.1330               659.2708               664.8506
 Red. masses --      1.7132                 6.0115                 1.4442
 Frc consts  --      0.4240                 1.5394                 0.3761
 IR Inten    --    106.5713                 6.3294                20.7800

                     28                     29                     30
                      A                      A                      A
 Frequencies --    668.0072               745.1059               758.7565
 Red. masses --      1.4105                 3.0977                 3.0081
 Frc consts  --      0.3708                 1.0133                 1.0203
 IR Inten    --    276.9686                 3.4323                15.4617

                     31                     32                     33
                      A                      A                      A
 Frequencies --    791.5517               818.4632               823.5111
 Red. masses --      5.4361                 2.2035                 1.4729
 Frc consts  --      2.0068                 0.8697                 0.5885
 IR Inten    --     10.8538                11.3800                 8.9552

                     34                     35                     36
                      A                      A                      A
 Frequencies --    847.8646               857.4915               903.9303
 Red. masses --      1.8767                 4.1354                 1.3784
 Frc consts  --      0.7949                 1.7915                 0.6636
 IR Inten    --     65.1973                16.9500                46.7259

                     37                     38                     39
                      A                      A                      A
 Frequencies --    950.0975               950.2260               958.7575
 Red. masses --      1.3264                 1.5955                 1.5761
 Frc consts  --      0.7055                 0.8488                 0.8536
 IR Inten    --      0.8896                35.3219                15.0680

                     40                     41                     42
                      A                      A                      A
 Frequencies --    966.8428              1022.9745              1026.6224
 Red. masses --      1.3444                 1.1311                 1.4030
 Frc consts  --      0.7404                 0.6974                 0.8712
 IR Inten    --      1.4568                15.7059                11.3732

                     43                     44                     45
                      A                      A                      A
 Frequencies --   1027.3694              1046.2936              1073.5125
 Red. masses --      2.7248                 1.5064                 1.4852
 Frc consts  --      1.6945                 0.9716                 1.0085
 IR Inten    --      0.4667                 2.3715                 2.5101

                     46                     47                     48
                      A                      A                      A
 Frequencies --   1106.8480              1140.0836              1160.6659
 Red. masses --      1.4824                 2.5066                 1.2080
 Frc consts  --      1.0700                 1.9196                 0.9588
 IR Inten    --      3.9676                49.8115                 6.7876

                     49                     50                     51
                      A                      A                      A
 Frequencies --   1201.3109              1237.0977              1250.2053
 Red. masses --      1.1718                 2.2482                 1.6378
 Frc consts  --      0.9963                 2.0271                 1.5082
 IR Inten    --     35.9886                 4.3891               197.0801

                     52                     53                     54
                      A                      A                      A
 Frequencies --   1317.4970              1321.2585              1351.1428
 Red. masses --      2.3999                 2.2733                 2.1340
 Frc consts  --      2.4544                 2.3382                 2.2953
 IR Inten    --     54.8246                31.2451               124.3586

                     55                     56                     57
                      A                      A                      A
 Frequencies --   1351.3800              1365.1207              1414.5353
 Red. masses --      2.2331                 1.9969                 1.2422
 Frc consts  --      2.4027                 2.1925                 1.4644
 IR Inten    --    152.1995                 1.8489                 5.1012

                     58                     59                     60
                      A                      A                      A
 Frequencies --   1446.6755              1450.3712              1474.0705
 Red. masses --      1.2095                 1.4884                 1.3800
 Frc consts  --      1.4914                 1.8447                 1.7667
 IR Inten    --      1.6421                 9.6994                 4.9583

                     61                     62                     63
                      A                      A                      A
 Frequencies --   1476.1927              1492.6617              1550.4090
 Red. masses --      1.4464                 1.0674                 2.6390
 Frc consts  --      1.8571                 1.4012                 3.7375
 IR Inten    --      9.8618                12.6953                82.3837

                     64                     65                     66
                      A                      A                      A
 Frequencies --   1607.7911              1652.4269              1677.9240
 Red. masses --      5.4600                 3.9650                 1.7088
 Frc consts  --      8.3158                 6.3788                 2.8346
 IR Inten    --      3.9801               107.9007               140.4151

                     67                     68                     69
                      A                      A                      A
 Frequencies --   1683.0227              1689.8818              1803.7595
 Red. masses --      2.2419                 4.8049                10.1339
 Frc consts  --      3.7415                 8.0843                19.4259
 IR Inten    --     26.1843                17.4677               294.1599

                     70                     71                     72
                      A                      A                      A
 Frequencies --   3040.3748              3103.5314              3121.4904
 Red. masses --      1.0387                 1.0956                 1.0846
 Frc consts  --      5.6571                 6.2176                 6.2268
 IR Inten    --     15.8518                 2.5136                16.4277

                     73                     74                     75
                      A                      A                      A
 Frequencies --   3130.1708              3135.1387              3140.4241
 Red. masses --      1.1028                 1.0616                 1.0632
 Frc consts  --      6.3664                 6.1480                 6.1778
 IR Inten    --      7.7336                 1.9569                 2.6741

                     76                     77                     78
                      A                      A                      A
 Frequencies --   3152.3968              3154.6265              3179.7068
 Red. masses --      1.0878                 1.0880                 1.0921
 Frc consts  --      6.3690                 6.3791                 6.5058
 IR Inten    --     24.2940                 4.1768                17.3790

                     79                     80                     81
                      A                      A                      A
 Frequencies --   3183.7242              3217.5816              3220.8939
 Red. masses --      1.0930                 1.1148                 1.1149
 Frc consts  --      6.5276                 6.8002                 6.8148
 IR Inten    --      7.7763                 5.4130                14.2203

                     82                     83                     84
                      A                      A                      A
 Frequencies --   3540.6768              3644.8813              3801.1788
 Red. masses --      1.0497                 1.0963                 1.0654
 Frc consts  --      7.7536                 8.5814                 9.0697
 IR Inten    --    112.0856                51.7628                41.2273

 - Thermochemistry -
 -------------------
 Temperature   298.150 Kelvin.  Pressure   1.00000 Atm.
 Atom     1 has atomic number  6 and mass  12.00000

 Molecular mass:   205.11028 amu.
 Principal axes and moments of inertia in atomic units:
                           1         2         3
     Eigenvalues --  1996.131665063.495056177.50339
           X            0.99998  -0.00561   0.00233
           Y            0.00556   0.99980   0.01930
           Z           -0.00243  -0.01929   0.99981
 This molecule is an asymmetric top.
 Rotational symmetry number  1.
 Warning -- assumption of classical behavior for rotation
           may cause significant error
 Rotational temperatures (Kelvin)      0.04339     0.01711     0.01402
 Rotational constants (GHZ):           0.90412     0.35642     0.29215
 Zero-point vibrational energy     644453.4 (Joules/Mol)
                                  154.02807 (Kcal/Mol)
 Warning -- explicit consideration of  24 degrees of freedom as
           vibrations may cause significant error
 Vibrational temperatures:     15.18    25.57    57.36    65.83    77.31
          (Kelvin)             93.01   158.47   163.93   202.88   225.30
                              308.06   381.95   450.44   465.65   534.69
                              547.02   553.03   602.77   619.34   711.21
                              763.26   772.34   777.69   845.14   932.52
                              948.54   956.57   961.11  1072.04  1091.68
                             1138.87  1177.59  1184.85  1219.89  1233.74
                             1300.55  1366.98  1367.16  1379.44  1391.07
                             1471.83  1477.08  1478.16  1505.38  1544.55
                             1592.51  1640.33  1669.94  1728.42  1779.91
                             1798.77  1895.58  1901.00  1943.99  1944.33
                             1964.10  2035.20  2081.44  2086.76  2120.86
                             2123.91  2147.61  2230.69  2313.25  2377.47
                             2414.16  2421.49  2431.36  2595.21  4374.42
                             4465.29  4491.13  4503.62  4510.77  4518.37
                             4535.60  4538.80  4574.89  4580.67  4629.38
                             4634.15  5094.24  5244.17  5469.05

 Zero-point correction=                           0.245459 (Hartree/Particle)
 Thermal correction to Energy=                    0.262176
 Thermal correction to Enthalpy=                  0.263121
 Thermal correction to Gibbs Free Energy=         0.197262
 Sum of electronic and zero-point Energies=           -671.495002
 Sum of electronic and thermal Energies=              -671.478285
 Sum of electronic and thermal Enthalpies=            -671.477341
 Sum of electronic and thermal Free Energies=         -671.543199

                     E (Thermal)             CV                S
                      KCal/Mol        Cal/Mol-Kelvin    Cal/Mol-Kelvin
 Total                  164.518             60.372            138.610
 Electronic               0.000              0.000              0.000
 Translational            0.889              2.981             41.859
 Rotational               0.889              2.981             32.501
 Vibrational            162.741             54.410             64.250
 Vibration     1          0.593              1.987              7.904
 Vibration     2          0.593              1.986              6.869
 Vibration     3          0.594              1.981              5.266
 Vibration     4          0.595              1.979              4.993
 Vibration     5          0.596              1.976              4.675
 Vibration     6          0.597              1.971              4.310
 Vibration     7          0.606              1.941              3.266
 Vibration     8          0.607              1.938              3.201
 Vibration     9          0.615              1.912              2.790
 Vibration    10          0.620              1.895              2.591
 Vibration    11          0.644              1.819              2.008
 Vibration    12          0.671              1.736              1.626
 Vibration    13          0.701              1.649              1.346
 Vibration    14          0.708              1.628              1.292
 Vibration    15          0.743              1.530              1.073
 Vibration    16          0.750              1.512              1.038
 Vibration    17          0.753              1.504              1.022
 Vibration    18          0.782              1.429              0.896
 Vibration    19          0.792              1.404              0.857
 Vibration    20          0.850              1.263              0.672
 Vibration    21          0.885              1.183              0.586
 Vibration    22          0.892              1.169              0.572
 Vibration    23          0.896              1.160              0.564
 Vibration    24          0.945              1.059              0.472

                           ! Non-Optimized Parameters !
 Normal termination of Gaussian 16 at Thu Apr 21 11:25:11 2022.
 Gaussian 16:  ES64L-G16RevA.03 25-Dec-2016

 ----------------------------------------------------------------------
 #P B3LYP/6-311++G(d,p) Geom=Allcheck SCF=Tight EmpiricalDispersion=GD3
 BJ Pop=CHELPG SP IOp(6/33=2)
 ----------------------------------------------------------------------

 Structure from the checkpoint file:  "MAA1-AS1-4.chk"
 ----------------
 MAA1-AS1 geo opt
 ----------------
 Charge =  0 Multiplicity = 1

                         Standard orientation:
 ---------------------------------------------------------------------
 Center     Atomic      Atomic             Coordinates (Angstroms)
 Number     Number       Type             X           Y           Z
 ---------------------------------------------------------------------
      1          6           0       -1.302438   -0.574397    1.819916
      2          6           0       -1.997099   -1.153268    0.622887
      3          6           0       -1.710049   -2.353051    0.109352
      4          6           0       -2.980955   -0.248636   -0.059446
      5          8           0       -2.893236    0.953987   -0.045846
      6          8           0       -4.003885   -0.837259   -0.725153
      7          1           0       -2.024688   -0.262766    2.579546
      8          1           0       -0.732320    0.309176    1.528624
      9          1           0       -0.617346   -1.301440    2.255841
     10          1           0       -0.954921   -2.985146    0.560971
     11          1           0       -2.165592   -2.727887   -0.801168
     12          1           0       -4.007633   -1.785461   -0.544160
     13          6           0        4.490023   -1.562656    0.264482
     14          6           0        3.370323   -1.383977   -0.446237
     15          6           0        2.419717   -0.272428   -0.362231
     16          6           0        1.264339   -0.289311   -1.157499
     17          6           0        0.322410    0.726883   -1.107963
     18          6           0        0.492988    1.813193   -0.237056
     19          6           0        1.660171    1.853685    0.547069
     20          6           0        2.595974    0.835148    0.483744
     21          7           0       -0.454492    2.827448   -0.180974
     22          1           0        5.115414   -2.432509    0.106574
     23          1           0        4.823053   -0.857802    1.018083
     24          1           0        3.110099   -2.142747   -1.181862
     25          1           0        1.102179   -1.124871   -1.831018
     26          1           0       -0.558843    0.686545   -1.736737
     27          1           0        1.819653    2.691151    1.218899
     28          1           0        3.478823    0.900327    1.108771
     29          1           0       -1.407932    2.516376   -0.323933
     30          1           0       -0.373959    3.443984    0.614278
 ---------------------------------------------------------------------

 SCF Done:  E(RB3LYP) =  -671.740461472     A.U. after   15 cycles

 The electronic state is 1-A.
 Alpha  occ. eigenvalues --  -19.18886 -19.13109 -14.31283 -10.32680 -10.22231
 Alpha  occ. eigenvalues --  -10.21453 -10.20513 -10.18102 -10.17550 -10.17477
 Alpha  occ. eigenvalues --  -10.17429 -10.17355 -10.17071 -10.16637 -10.15964
 Alpha  occ. eigenvalues --   -1.12742  -1.04660  -0.92037  -0.84858  -0.83679
 Alpha  occ. eigenvalues --   -0.77936  -0.74961  -0.71737  -0.71304  -0.66369
 Alpha  occ. eigenvalues --   -0.62409  -0.61937  -0.61144  -0.56092  -0.52830
 Alpha  occ. eigenvalues --   -0.52270  -0.51301  -0.49214  -0.47833  -0.47635
 Alpha  occ. eigenvalues --   -0.45262  -0.44757  -0.44242  -0.44024  -0.42975
 Alpha  occ. eigenvalues --   -0.42265  -0.41244  -0.39864  -0.38826  -0.38561
 Alpha  occ. eigenvalues --   -0.38244  -0.35324  -0.34557  -0.33814  -0.33310
 Alpha  occ. eigenvalues --   -0.30543  -0.29760  -0.27046  -0.25663  -0.19868
 Alpha virt. eigenvalues --   -0.07034  -0.03451  -0.02291  -0.01271  -0.00385
 Alpha virt. eigenvalues --   -0.00058   0.00717   0.01241   0.01837   0.02267
 Alpha virt. eigenvalues --    0.02859   0.03214   0.03522   0.04408   0.04583

 Mulliken charges:
               1
     1  C   -0.887025
     2  C    1.096413
     3  C   -0.489972
     4  C   -0.441844
     5  O   -0.277341
     6  O   -0.094949
     7  H    0.169651
     8  H    0.224977
     9  H    0.135104
    10  H    0.157380
    11  H    0.152264
    12  H    0.235671
    13  C   -0.504618
    14  C   -0.506114
    15  C    0.962750
    16  C    0.011146
    17  C    0.044381
    18  C   -0.379046
    19  C    0.117930
    20  C   -0.948974
    21  N   -0.324133
    22  H    0.152450
    23  H    0.113709
    24  H    0.133343
    25  H    0.166782
    26  H    0.180461
    27  H    0.173383
    28  H    0.103260
    29  H    0.289393
    30  H    0.233565
 Sum of Mulliken charges =  -0.00000

 Dipole moment (field-independent basis, Debye):
    X=             -0.9599    Y=             -3.1496    Z=              2.0126  Tot=              3.8590
 Quadrupole moment (field-independent basis, Debye-Ang):
   XX=            -98.0450   YY=            -83.5312   ZZ=            -90.1774
   XY=              9.3622   XZ=              0.7908   YZ=              8.2004

 ESP charges:
               1
     1  C    0.007333
     2  C   -0.047727
     3  C   -0.368632
     4  C    0.785229
     5  O   -0.555454
     6  O   -0.570947
     7  H    0.000466
     8  H    0.002588
     9  H    0.024700
    10  H    0.164717
    11  H    0.155716
    12  H    0.353209
    13  C   -0.342383
    14  C   -0.123613
    15  C    0.147234
    16  C   -0.173264
    17  C   -0.248615
    18  C    0.615306
    19  C   -0.312882
    20  C   -0.140398
    21  N   -1.034936
    22  H    0.125083
    23  H    0.130177
    24  H    0.097117
    25  H    0.103955
    26  H    0.123227
    27  H    0.128218
    28  H    0.122886
    29  H    0.442555
    30  H    0.389133
 Sum of ESP charges =  -0.00000

 Normal termination of Gaussian 16 at Thu Apr 21 11:36:03 2022.
