 Gaussian 16, Revision A.03,

 ---------------------------------------------------------------------
 #n B3LYP/6-311++G(d,p) Opt freq EmpiricalDispersion=GD3BJ IOp(6/33=2)
 ---------------------------------------------------------------------

 ----------------
 MAA1-AS1 geo opt
 ----------------
 Symbolic Z-matrix:
 Charge =  0 Multiplicity = 1

 SCF Done:  E(RB3LYP) =  -671.692267485     A.U. after   15 cycles
 SCF Done:  E(RB3LYP) =  -671.720046636     A.U. after   14 cycles
 SCF Done:  E(RB3LYP) =  -671.729157568     A.U. after   14 cycles
 SCF Done:  E(RB3LYP) =  -671.730054186     A.U. after   15 cycles
 SCF Done:  E(RB3LYP) =  -671.731644208     A.U. after   14 cycles
 SCF Done:  E(RB3LYP) =  -671.721601274     A.U. after   16 cycles
 SCF Done:  E(RB3LYP) =  -671.733960770     A.U. after   14 cycles
 SCF Done:  E(RB3LYP) =  -671.735253104     A.U. after   13 cycles
 SCF Done:  E(RB3LYP) =  -671.735668604     A.U. after   14 cycles
 SCF Done:  E(RB3LYP) =  -671.736217959     A.U. after   13 cycles
 SCF Done:  E(RB3LYP) =  -671.736715832     A.U. after   11 cycles
 SCF Done:  E(RB3LYP) =  -671.736716086     A.U. after   11 cycles
 SCF Done:  E(RB3LYP) =  -671.736716397     A.U. after   11 cycles
 SCF Done:  E(RB3LYP) =  -671.736716656     A.U. after   11 cycles
 SCF Done:  E(RB3LYP) =  -671.736716817     A.U. after   11 cycles
 SCF Done:  E(RB3LYP) =  -671.736716904     A.U. after    9 cycles
 SCF Done:  E(RB3LYP) =  -671.736716944     A.U. after    9 cycles
 SCF Done:  E(RB3LYP) =  -671.736716965     A.U. after    8 cycles
 Optimization completed.
    -- Stationary point found.
 Normal termination of Gaussian 16 at Thu Apr 21 11:16:28 2022.

 ----------------------------------------------------------------------
 #N Geom=AllCheck Guess=TCheck SCRF=Check Test GenChk RB3LYP/6-311++G(d
 ,p) Freq
 ----------------------------------------------------------------------

 Structure from the checkpoint file:  "MAA1-AS1-3.chk"
 ----------------
 MAA1-AS1 geo opt
 ----------------
 Charge =  0 Multiplicity = 1

 SCF Done:  E(RB3LYP) =  -671.736716965     A.U. after    1 cycles

  Exact polarizability: 246.185  31.524 175.670  -4.368  -2.538  97.978
 Approx polarizability: 345.316  48.877 285.324  -3.878  -6.432 147.260

                      1                      2                      3
                      A                      A                      A
 Frequencies --      9.9157                17.1993                32.6190
 Red. masses --      4.5835                 3.8462                 3.9591
 Frc consts  --      0.0003                 0.0007                 0.0025
 IR Inten    --      2.2781                 2.1912                 0.5384

                      4                      5                      6
                      A                      A                      A
 Frequencies --     36.8751                41.9749                60.0232
 Red. masses --      5.1203                 3.8204                 4.4108
 Frc consts  --      0.0041                 0.0040                 0.0094
 IR Inten    --      0.8256                 0.4635                 2.6220

                      7                      8                      9
                      A                      A                      A
 Frequencies --     67.5535               101.0612               149.2739
 Red. masses --      3.8635                 6.7924                 2.7068
 Frc consts  --      0.0104                 0.0409                 0.0355
 IR Inten    --      0.6241                 9.8952                 2.5649

                     10                     11                     12
                      A                      A                      A
 Frequencies --    211.0541               215.8984               290.6280
 Red. masses --      1.0325                 3.3178                 3.6895
 Frc consts  --      0.0271                 0.0911                 0.1836
 IR Inten    --      0.3191                 3.7453                10.2239

                     13                     14                     15
                      A                      A                      A
 Frequencies --    310.9229               356.4930               386.4694
 Red. masses --      2.8099                 3.1610                 3.1553
 Frc consts  --      0.1600                 0.2367                 0.2777
 IR Inten    --      1.1774                 7.3800                 2.0459

                     16                     17                     18
                      A                      A                      A
 Frequencies --    395.4757               399.6340               420.4605
 Red. masses --      1.3858                 1.9758                 2.9240
 Frc consts  --      0.1277                 0.1859                 0.3046
 IR Inten    --     81.1775                21.1627                 2.1866

                     19                     20                     21
                      A                      A                      A
 Frequencies --    432.2690               495.4856               501.5378
 Red. masses --      4.1614                 1.3793                 1.8074
 Frc consts  --      0.4581                 0.1995                 0.2679
 IR Inten    --      0.6618                40.0458                80.2981

                     22                     23                     24
                      A                      A                      A
 Frequencies --    514.0379               537.2770               581.9939
 Red. masses --      4.0697                 3.0697                 4.2110
 Frc consts  --      0.6336                 0.5221                 0.8404
 IR Inten    --      6.3716                26.8339                 8.4028

                     25                     26                     27
                      A                      A                      A
 Frequencies --    615.6753               655.8816               659.2878
 Red. masses --      1.1798                 1.7193                 5.9251
 Frc consts  --      0.2635                 0.4358                 1.5174
 IR Inten    --    274.9444                 0.8281                 2.4454

                     28                     29                     30
                      A                      A                      A
 Frequencies --    660.2034               745.7083               763.2050
 Red. masses --      1.3969                 3.3807                 3.0256
 Frc consts  --      0.3587                 1.1076                 1.0384
 IR Inten    --     11.8920                 0.8674                 0.5668

                     31                     32                     33
                      A                      A                      A
 Frequencies --    787.2350               822.1461               825.6322
 Red. masses --      6.2343                 1.3867                 2.4036
 Frc consts  --      2.2764                 0.5522                 0.9654
 IR Inten    --      8.4077                10.3932                 7.8089

                     34                     35                     36
                      A                      A                      A
 Frequencies --    854.4630               859.8141               894.7025
 Red. masses --      3.1880                 2.0200                 1.3866
 Frc consts  --      1.3714                 0.8799                 0.6540
 IR Inten    --     13.4437                44.8094                47.6265

                     37                     38                     39
                      A                      A                      A
 Frequencies --    950.3230               950.8859               974.6311
 Red. masses --      1.3560                 1.8662                 1.3237
 Frc consts  --      0.7215                 0.9942                 0.7408
 IR Inten    --      0.0660                 1.0554                 0.9866

                     40                     41                     42
                      A                      A                      A
 Frequencies --    996.2715              1020.6909              1022.2519
 Red. masses --      1.3298                 1.3763                 1.1362
 Frc consts  --      0.7776                 0.8448                 0.6996
 IR Inten    --     35.1808                11.4636                16.1130

                     43                     44                     45
                      A                      A                      A
 Frequencies --   1027.0166              1045.6809              1067.6080
 Red. masses --      2.7840                 1.5083                 1.4745
 Frc consts  --      1.7301                 0.9717                 0.9902
 IR Inten    --      0.1959                 3.1182                 0.0406

                     46                     47                     48
                      A                      A                      A
 Frequencies --   1095.7047              1147.5886              1161.5911
 Red. masses --      1.4474                 2.5108                 1.2261
 Frc consts  --      1.0238                 1.9482                 0.9748
 IR Inten    --      4.9571                54.9725                 3.9451

                     49                     50                     51
                      A                      A                      A
 Frequencies --   1204.3146              1239.2022              1252.6973
 Red. masses --      1.1930                 2.1971                 1.8187
 Frc consts  --      1.0195                 1.9879                 1.6816
 IR Inten    --     59.3195                 4.3274                96.5777

                     52                     53                     54
                      A                      A                      A
 Frequencies --   1319.3317              1324.9399              1330.2870
 Red. masses --      1.8973                 2.9747                 3.0790
 Frc consts  --      1.9458                 3.0767                 3.2103
 IR Inten    --      7.0066                 8.4381               399.4916

                     55                     56                     57
                      A                      A                      A
 Frequencies --   1351.3947              1363.6004              1410.1379
 Red. masses --      1.8031                 1.8052                 1.1911
 Frc consts  --      1.9402                 1.9777                 1.3954
 IR Inten    --     25.1896                 4.6053                17.7882

                     58                     59                     60
                      A                      A                      A
 Frequencies --   1436.2754              1451.5816              1476.4322
 Red. masses --      1.2426                 1.4184                 2.3130
 Frc consts  --      1.5103                 1.7608                 2.9707
 IR Inten    --     25.7505                13.9530                 2.7794

                     61                     62                     63
                      A                      A                      A
 Frequencies --   1491.7465              1500.7947              1552.3620
 Red. masses --      1.0415                 1.0530                 2.6138
 Frc consts  --      1.3655                 1.3974                 3.7112
 IR Inten    --      9.8247                24.2241               111.1841

                     64                     65                     66
                      A                      A                      A
 Frequencies --   1605.3562              1652.9258              1676.9953
 Red. masses --      5.4543                 4.3556                 2.2751
 Frc consts  --      8.2819                 7.0114                 3.7697
 IR Inten    --      4.5622               211.2183               114.5530

                     67                     68                     69
                      A                      A                      A
 Frequencies --   1684.0947              1691.8875              1804.2069
 Red. masses --      1.6468                 5.3895                 9.9665
 Frc consts  --      2.7518                 9.0895                19.1146
 IR Inten    --     61.1071                54.5236               295.0532

                     70                     71                     72
                      A                      A                      A
 Frequencies --   3008.5023              3054.8856              3115.9569
 Red. masses --      1.0412                 1.1006                 1.0956
 Frc consts  --      5.5526                 6.0516                 6.2672
 IR Inten    --     14.1270                11.4438                10.8266

                     73                     74                     75
                      A                      A                      A
 Frequencies --   3119.6496              3139.2042              3149.8839
 Red. masses --      1.0846                 1.0630                 1.0603
 Frc consts  --      6.2189                 6.1719                 6.1982
 IR Inten    --     18.6668                 3.1178                 6.6159

                     76                     77                     78
                      A                      A                      A
 Frequencies --   3150.1691              3152.0572              3178.0288
 Red. masses --      1.0877                 1.0883                 1.0922
 Frc consts  --      6.3596                 6.3707                 6.4993
 IR Inten    --     33.9045                 5.2892                13.9796

                     79                     80                     81
                      A                      A                      A
 Frequencies --   3191.2536              3219.0637              3244.4474
 Red. masses --      1.0922                 1.1149                 1.1171
 Frc consts  --      6.5536                 6.8067                 6.9281
 IR Inten    --      0.2751                17.2608                 0.6849

                     82                     83                     84
                      A                      A                      A
 Frequencies --   3531.1732              3662.3338              3811.3469
 Red. masses --      1.0527                 1.0958                 1.0657
 Frc consts  --      7.7337                 8.6597                 9.1206
 IR Inten    --    387.3150                90.4138                76.2754

 - Thermochemistry -
 -------------------
 Temperature   298.150 Kelvin.  Pressure   1.00000 Atm.
 Atom     1 has atomic number  6 and mass  12.00000

 Molecular mass:   205.11028 amu.
 Principal axes and moments of inertia in atomic units:
                           1         2         3
     Eigenvalues --  1192.003569488.56114**********
           X            0.99999  -0.00381  -0.00335
           Y            0.00382   0.99999   0.00305
           Z            0.00334  -0.00306   0.99999
 This molecule is an asymmetric top.
 Rotational symmetry number  1.
 Warning -- assumption of classical behavior for rotation
           may cause significant error
 Rotational temperatures (Kelvin)      0.07266     0.00913     0.00821
 Rotational constants (GHZ):           1.51404     0.19020     0.17109
 Zero-point vibrational energy     644301.8 (Joules/Mol)
                                  153.99183 (Kcal/Mol)
 Warning -- explicit consideration of  25 degrees of freedom as
           vibrations may cause significant error
 Vibrational temperatures:     14.27    24.75    46.93    53.06    60.39
          (Kelvin)             86.36    97.19   145.40   214.77   303.66
                              310.63   418.15   447.35   512.91   556.04
                              569.00   574.98   604.95   621.94   712.89
                              721.60   739.59   773.02   837.36   885.82
                              943.67   948.57   949.89  1072.91  1098.08
                             1132.66  1182.88  1187.90  1229.38  1237.08
                             1287.28  1367.30  1368.11  1402.28  1433.41
                             1468.55  1470.79  1477.65  1504.50  1536.05
                             1576.47  1651.12  1671.27  1732.74  1782.94
                             1802.35  1898.22  1906.29  1913.99  1944.36
                             1961.92  2028.87  2066.48  2088.50  2124.26
                             2146.29  2159.31  2233.50  2309.75  2378.19
                             2412.82  2423.04  2434.25  2595.85  4328.56
                             4395.30  4483.17  4488.48  4516.61  4531.98
                             4532.39  4535.11  4572.47  4591.50  4631.51
                             4668.04  5080.57  5269.28  5483.68

 Zero-point correction=                           0.245402 (Hartree/Particle)
 Thermal correction to Energy=                    0.262132
 Thermal correction to Enthalpy=                  0.263077
 Thermal correction to Gibbs Free Energy=         0.196029
 Sum of electronic and zero-point Energies=           -671.491315
 Sum of electronic and thermal Energies=              -671.474585
 Sum of electronic and thermal Enthalpies=            -671.473640
 Sum of electronic and thermal Free Energies=         -671.540688

                     E (Thermal)             CV                S
                      KCal/Mol        Cal/Mol-Kelvin    Cal/Mol-Kelvin
 Total                  164.491             60.311            141.113
 Electronic               0.000              0.000              0.000
 Translational            0.889              2.981             41.859
 Rotational               0.889              2.981             33.145
 Vibrational            162.713             54.349             66.109
 Vibration     1          0.593              1.987              8.028
 Vibration     2          0.593              1.986              6.934
 Vibration     3          0.594              1.983              5.663
 Vibration     4          0.594              1.982              5.420
 Vibration     5          0.595              1.980              5.164
 Vibration     6          0.597              1.973              4.456
 Vibration     7          0.598              1.970              4.223
 Vibration     8          0.604              1.948              3.434
 Vibration     9          0.618              1.903              2.681
 Vibration    10          0.643              1.824              2.035
 Vibration    11          0.645              1.817              1.993
 Vibration    12          0.687              1.691              1.470
 Vibration    13          0.700              1.653              1.357
 Vibration    14          0.732              1.562              1.137
 Vibration    15          0.755              1.499              1.014
 Vibration    16          0.762              1.480              0.979
 Vibration    17          0.766              1.471              0.964
 Vibration    18          0.783              1.426              0.890
 Vibration    19          0.793              1.400              0.851
 Vibration    20          0.851              1.260              0.670
 Vibration    21          0.857              1.247              0.654
 Vibration    22          0.869              1.219              0.624
 Vibration    23          0.892              1.168              0.571
 Vibration    24          0.939              1.070              0.482
 Vibration    25          0.975              0.999              0.423

                           ! Non-Optimized Parameters !
 Normal termination of Gaussian 16 at Thu Apr 21 11:20:52 2022.
 Gaussian 16:  ES64L-G16RevA.03 25-Dec-2016

 ----------------------------------------------------------------------
 #P B3LYP/6-311++G(d,p) Geom=Allcheck SCF=Tight EmpiricalDispersion=GD3
 BJ Pop=CHELPG SP IOp(6/33=2)
 ----------------------------------------------------------------------

 Structure from the checkpoint file:  "MAA1-AS1-3.chk"
 ----------------
 MAA1-AS1 geo opt
 ----------------
 Charge =  0 Multiplicity = 1

                         Standard orientation:
 ---------------------------------------------------------------------
 Center     Atomic      Atomic             Coordinates (Angstroms)
 Number     Number       Type             X           Y           Z
 ---------------------------------------------------------------------
      1          6           0        4.975424   -1.701888   -0.453437
      2          6           0        4.507530   -0.300438   -0.154743
      3          6           0        5.285225    0.775458   -0.291257
      4          6           0        3.101692   -0.074068    0.322524
      5          8           0        2.644238    1.005807    0.602661
      6          8           0        2.313817   -1.172692    0.440080
      7          1           0        4.386437   -2.166706   -1.252911
      8          1           0        4.918228   -2.347125    0.430588
      9          1           0        6.014389   -1.696190   -0.782954
     10          1           0        6.310607    0.689521   -0.630677
     11          1           0        4.901185    1.761644   -0.063763
     12          1           0        2.776346   -1.970744    0.157857
     13          6           0       -5.946840   -1.108004   -0.111264
     14          6           0       -4.645748   -1.400275    0.007338
     15          6           0       -3.508786   -0.478220   -0.017538
     16          6           0       -2.205402   -0.981544    0.110844
     17          6           0       -1.089315   -0.157498    0.094805
     18          6           0       -1.236516    1.230745   -0.053636
     19          6           0       -2.539533    1.748180   -0.181234
     20          6           0       -3.642570    0.912665   -0.162682
     21          7           0       -0.130746    2.060578   -0.122779
     22          1           0       -6.697139   -1.888158   -0.075464
     23          1           0       -6.308277   -0.094751   -0.246882
     24          1           0       -4.372283   -2.445607    0.139091
     25          1           0       -2.066568   -2.051632    0.231093
     26          1           0       -0.096887   -0.578265    0.202207
     27          1           0       -2.675754    2.818573   -0.299714
     28          1           0       -4.628800    1.351064   -0.261619
     29          1           0        0.745446    1.702325    0.237672
     30          1           0       -0.287108    3.036415    0.074676
 ---------------------------------------------------------------------

 SCF Done:  E(RB3LYP) =  -671.736716965     A.U. after   15 cycles

 The electronic state is 1-A.
 Alpha  occ. eigenvalues --  -19.19664 -19.13352 -14.30108 -10.33286 -10.22756
 Alpha  occ. eigenvalues --  -10.21259 -10.20893 -10.20209 -10.16288 -10.16057
 Alpha  occ. eigenvalues --  -10.16005 -10.15847 -10.15620 -10.15056 -10.14669
 Alpha  occ. eigenvalues --   -1.13379  -1.05115  -0.90720  -0.84669  -0.83400
 Alpha  occ. eigenvalues --   -0.76581  -0.73587  -0.73486  -0.69967  -0.67452
 Alpha  occ. eigenvalues --   -0.62730  -0.61069  -0.59788  -0.54791  -0.53394
 Alpha  occ. eigenvalues --   -0.51427  -0.50447  -0.49241  -0.48692  -0.47355
 Alpha  occ. eigenvalues --   -0.46109  -0.45048  -0.44271  -0.43537  -0.42731
 Alpha  occ. eigenvalues --   -0.41967  -0.40811  -0.39852  -0.39646  -0.37770
 Alpha  occ. eigenvalues --   -0.36905  -0.35476  -0.33863  -0.32498  -0.32078
 Alpha  occ. eigenvalues --   -0.30926  -0.30376  -0.25722  -0.24274  -0.18294
 Alpha virt. eigenvalues --   -0.08074  -0.03153  -0.02028  -0.00475   0.00095
 Alpha virt. eigenvalues --    0.00395   0.01058   0.01236   0.01292   0.02408
 Alpha virt. eigenvalues --    0.02494   0.03470   0.03586   0.04236   0.04535

 Mulliken charges:
               1
     1  C   -0.714273
     2  C    1.040194
     3  C   -0.599093
     4  C   -0.418459
     5  O   -0.281503
     6  O   -0.138949
     7  H    0.164244
     8  H    0.169408
     9  H    0.177334
    10  H    0.132055
    11  H    0.206454
    12  H    0.265361
    13  C   -0.384145
    14  C   -0.233821
    15  C    1.662711
    16  C    0.231440
    17  C   -0.011608
    18  C   -0.671469
    19  C   -0.189953
    20  C   -1.606013
    21  N   -0.307929
    22  H    0.150548
    23  H    0.118818
    24  H    0.110620
    25  H    0.150160
    26  H    0.206414
    27  H    0.174620
    28  H    0.041786
    29  H    0.330704
    30  H    0.224344
 Sum of Mulliken charges =  -0.00000

 Dipole moment (field-independent basis, Debye):
    X=              7.0603    Y=             -1.7955    Z=             -0.6371  Tot=              7.3129
 Quadrupole moment (field-independent basis, Debye-Ang):
   XX=            -69.9449   YY=            -78.4750   ZZ=            -98.2036
   XY=            -11.8914   XZ=             -3.9253   YZ=              0.5636

 ESP charges:
               1
     1  C    0.014397
     2  C   -0.101600
     3  C   -0.269256
     4  C    0.744337
     5  O   -0.533534
     6  O   -0.607929
     7  H   -0.001547
     8  H   -0.000238
     9  H    0.054712
    10  H    0.149432
    11  H    0.143146
    12  H    0.423771
    13  C   -0.339629
    14  C   -0.147092
    15  C    0.181638
    16  C   -0.213262
    17  C   -0.231444
    18  C    0.432661
    19  C   -0.254584
    20  C   -0.146196
    21  N   -0.882942
    22  H    0.117782
    23  H    0.126602
    24  H    0.104949
    25  H    0.107769
    26  H    0.155651
    27  H    0.121787
    28  H    0.112493
    29  H    0.388383
    30  H    0.349743
 Sum of ESP charges =  -0.00000

 Normal termination of Gaussian 16 at Thu Apr 21 11:29:45 2022.
