 Gaussian 16, Revision A.03,

 ---------------------------------------------------------------------
 #n B3LYP/6-311++G(d,p) Opt freq EmpiricalDispersion=GD3BJ IOp(6/33=2)
 ---------------------------------------------------------------------

 ----------------
 MAA1-AS1 geo opt
 ----------------
 Symbolic Z-matrix:
 Charge =  0 Multiplicity = 1

 SCF Done:  E(RB3LYP) =  -671.706534740     A.U. after   15 cycles
 SCF Done:  E(RB3LYP) =  -671.731105542     A.U. after   16 cycles
 SCF Done:  E(RB3LYP) =  -671.726640499     A.U. after   15 cycles
 SCF Done:  E(RB3LYP) =  -671.729616943     A.U. after   16 cycles
 SCF Done:  E(RB3LYP) =  -671.734177635     A.U. after   13 cycles
 SCF Done:  E(RB3LYP) =  -671.735745682     A.U. after   16 cycles
 SCF Done:  E(RB3LYP) =  -671.737206230     A.U. after   16 cycles
 SCF Done:  E(RB3LYP) =  -671.737420463     A.U. after   14 cycles
 SCF Done:  E(RB3LYP) =  -671.737775789     A.U. after   15 cycles
 SCF Done:  E(RB3LYP) =  -671.739062756     A.U. after   16 cycles
 SCF Done:  E(RB3LYP) =  -671.743677333     A.U. after   12 cycles
 SCF Done:  E(RB3LYP) =  -671.743694189     A.U. after   12 cycles
 SCF Done:  E(RB3LYP) =  -671.743698751     A.U. after   11 cycles
 SCF Done:  E(RB3LYP) =  -671.743700672     A.U. after   11 cycles
 SCF Done:  E(RB3LYP) =  -671.743701227     A.U. after   11 cycles
 SCF Done:  E(RB3LYP) =  -671.743701610     A.U. after   10 cycles
 SCF Done:  E(RB3LYP) =  -671.743701996     A.U. after   10 cycles
 SCF Done:  E(RB3LYP) =  -671.743702114     A.U. after   10 cycles
 Optimization completed.
    -- Stationary point found.
 Normal termination of Gaussian 16 at Thu Apr 21 15:23:59 2022.

 ----------------------------------------------------------------------
 #N Geom=AllCheck Guess=TCheck SCRF=Check Test GenChk RB3LYP/6-311++G(d
 ,p) Freq
 ----------------------------------------------------------------------

 Structure from the checkpoint file:  "MAA1-AS1-5.chk"
 ----------------
 MAA1-AS1 geo opt
 ----------------
 Charge =  0 Multiplicity = 1

 SCF Done:  E(RB3LYP) =  -671.743702114     A.U. after    1 cycles

  Exact polarizability: 197.077 -40.876 149.032  13.701  12.418 144.435
 Approx polarizability: 308.965 -80.685 228.010  38.442  27.781 260.293

                      1                      2                      3
                      A                      A                      A
 Frequencies --     33.0529                34.4543                51.9730
 Red. masses --      4.4550                 4.1274                 3.8621
 Frc consts  --      0.0029                 0.0029                 0.0061
 IR Inten    --      2.5848                 1.0308                 1.3701

                      4                      5                      6
                      A                      A                      A
 Frequencies --     54.3034                76.0715                90.3719
 Red. masses --      4.5839                 4.2983                 3.3457
 Frc consts  --      0.0080                 0.0147                 0.0161
 IR Inten    --      1.4987                 5.4755                 1.5546

                      7                      8                      9
                      A                      A                      A
 Frequencies --    104.8537               119.0520               158.1477
 Red. masses --      3.6552                 4.3903                 1.6115
 Frc consts  --      0.0237                 0.0367                 0.0237
 IR Inten    --      8.0255                 0.5207                 2.2932

                     10                     11                     12
                      A                      A                      A
 Frequencies --    165.0894               212.4522               279.9098
 Red. masses --      1.5142                 3.3450                 3.8314
 Frc consts  --      0.0243                 0.0890                 0.1769
 IR Inten    --      6.7097                 0.4094                 9.6573

                     13                     14                     15
                      A                      A                      A
 Frequencies --    303.8168               315.6453               348.9316
 Red. masses --      1.0429                 2.9176                 3.4091
 Frc consts  --      0.0567                 0.1713                 0.2446
 IR Inten    --     27.9386                 1.9020                12.8210

                     16                     17                     18
                      A                      A                      A
 Frequencies --    382.0135               390.6886               415.2933
 Red. masses --      3.2858                 2.6824                 3.0391
 Frc consts  --      0.2825                 0.2412                 0.3088
 IR Inten    --      0.3010                 5.8789                 0.3264

                     19                     20                     21
                      A                      A                      A
 Frequencies --    431.2208               491.0605               494.5941
 Red. masses --      4.4005                 1.3096                 1.9572
 Frc consts  --      0.4821                 0.1861                 0.2821
 IR Inten    --      2.4383               131.9034                24.5768

                     22                     23                     24
                      A                      A                      A
 Frequencies --    522.3918               537.5022               588.7407
 Red. masses --      3.0896                 3.0753                 4.5100
 Frc consts  --      0.4968                 0.5235                 0.9210
 IR Inten    --      0.2037                13.4505                 4.9072

                     25                     26                     27
                      A                      A                      A
 Frequencies --    633.4402               650.8778               658.4620
 Red. masses --      1.3237                 1.8089                 6.0515
 Frc consts  --      0.3129                 0.4515                 1.5459
 IR Inten    --     22.4469                31.7454                12.8241

                     28                     29                     30
                      A                      A                      A
 Frequencies --    685.5559               745.8291               762.5970
 Red. masses --      1.4675                 2.9956                 2.8571
 Frc consts  --      0.4064                 0.9818                 0.9790
 IR Inten    --    369.0773                 5.9488                36.5114

                     31                     32                     33
                      A                      A                      A
 Frequencies --    790.0529               815.7860               823.5070
 Red. masses --      5.7330                 2.8436                 1.2954
 Frc consts  --      2.1084                 1.1150                 0.5176
 IR Inten    --     12.2359                18.7871                 5.3196

                     34                     35                     36
                      A                      A                      A
 Frequencies --    845.5773               858.1686               909.8244
 Red. masses --      1.9113                 4.3223                 1.3734
 Frc consts  --      0.8052                 1.8755                 0.6698
 IR Inten    --     77.0894                15.0821                48.2528

                     37                     38                     39
                      A                      A                      A
 Frequencies --    940.8484               950.2622               960.3825
 Red. masses --      1.4492                 1.3255                 1.7396
 Frc consts  --      0.7558                 0.7052                 0.9453
 IR Inten    --     37.1214                 1.2370                10.5091

                     40                     41                     42
                      A                      A                      A
 Frequencies --    971.9768              1023.7322              1024.6493
 Red. masses --      1.3473                 1.1400                 1.3817
 Frc consts  --      0.7499                 0.7039                 0.8547
 IR Inten    --      0.4544                15.4200                 7.5616

                     43                     44                     45
                      A                      A                      A
 Frequencies --   1027.8443              1046.4711              1070.4880
 Red. masses --      2.7288                 1.5043                 1.4884
 Frc consts  --      1.6985                 0.9706                 1.0049
 IR Inten    --      0.9094                 2.9049                 0.9766

                     46                     47                     48
                      A                      A                      A
 Frequencies --   1104.9233              1131.7519              1161.0576
 Red. masses --      1.4802                 2.5270                 1.2074
 Frc consts  --      1.0647                 1.9071                 0.9590
 IR Inten    --      5.3534                22.1115                 3.5650

                     49                     50                     51
                      A                      A                      A
 Frequencies --   1201.7807              1238.6935              1249.9112
 Red. masses --      1.1762                 2.1924                 1.6318
 Frc consts  --      1.0008                 1.9820                 1.5020
 IR Inten    --     28.3879                 1.9117               131.5084

                     52                     53                     54
                      A                      A                      A
 Frequencies --   1317.1165              1323.8494              1350.5531
 Red. masses --      2.4520                 2.1308                 1.9133
 Frc consts  --      2.5062                 2.2002                 2.0562
 IR Inten    --     40.5509                24.0303                81.4592

                     55                     56                     57
                      A                      A                      A
 Frequencies --   1352.7578              1368.0583              1414.0985
 Red. masses --      2.3516                 2.1952                 1.2602
 Frc consts  --      2.5354                 2.4206                 1.4847
 IR Inten    --    123.6973                 3.0813                 8.6151

                     58                     59                     60
                      A                      A                      A
 Frequencies --   1450.8783              1454.1679              1473.3197
 Red. masses --      1.4610                 1.2101                 1.0585
 Frc consts  --      1.8120                 1.5077                 1.3538
 IR Inten    --     12.6119                 0.3625                 8.5943

                     61                     62                     63
                      A                      A                      A
 Frequencies --   1475.9544              1496.5026              1551.5094
 Red. masses --      2.1876                 1.0708                 2.6507
 Frc consts  --      2.8078                 1.4128                 3.7594
 IR Inten    --      5.7295                16.3013                75.7259

                     64                     65                     66
                      A                      A                      A
 Frequencies --   1607.4878              1652.8212              1676.7895
 Red. masses --      5.4398                 4.0513                 1.6858
 Frc consts  --      8.2818                 6.5208                 2.7927
 IR Inten    --      3.0154                96.9434               124.3902

                     67                     68                     69
                      A                      A                      A
 Frequencies --   1682.2536              1694.2967              1795.2487
 Red. masses --      2.2439                 4.6266                10.0640
 Frc consts  --      3.7415                 7.8251                19.1105
 IR Inten    --     20.3835                14.7197               239.3388

                     70                     71                     72
                      A                      A                      A
 Frequencies --   3040.3137              3096.4576              3123.3345
 Red. masses --      1.0363                 1.0981                 1.0844
 Frc consts  --      5.6437                 6.2036                 6.2328
 IR Inten    --     12.9884                11.8885                16.2445

                     73                     74                     75
                      A                      A                      A
 Frequencies --   3124.0541              3139.8479              3142.8036
 Red. masses --      1.1034                 1.0635                 1.0621
 Frc consts  --      6.3450                 6.1775                 6.1809
 IR Inten    --      9.0412                 2.1921                 2.8277

                     76                     77                     78
                      A                      A                      A
 Frequencies --   3149.5410              3166.1563              3167.1803
 Red. masses --      1.0866                 1.0876                 1.0933
 Frc consts  --      6.3507                 6.4238                 6.4615
 IR Inten    --     14.1930                 6.2906                19.4938

                     79                     80                     81
                      A                      A                      A
 Frequencies --   3183.6505              3220.8115              3221.3021
 Red. masses --      1.0940                 1.1144                 1.1149
 Frc consts  --      6.5330                 6.8115                 6.8162
 IR Inten    --      6.0625                 5.5379                12.5501

                     82                     83                     84
                      A                      A                      A
 Frequencies --   3552.3083              3642.3566              3809.4133
 Red. masses --      1.0489                 1.0967                 1.0652
 Frc consts  --      7.7983                 8.5720                 9.1071
 IR Inten    --     44.6117                20.3396                30.0547

 - Thermochemistry -
 -------------------
 Temperature   298.150 Kelvin.  Pressure   1.00000 Atm.
 Atom     1 has atomic number  6 and mass  12.00000

 Molecular mass:   205.11028 amu.
 Principal axes and moments of inertia in atomic units:
                           1         2         3
     Eigenvalues --  2172.222143681.633444584.60798
           X            0.99945  -0.03289   0.00453
           Y            0.03271   0.99884   0.03533
           Z           -0.00568  -0.03517   0.99937
 This molecule is an asymmetric top.
 Rotational symmetry number  1.
 Warning -- assumption of classical behavior for rotation
           may cause significant error
 Rotational temperatures (Kelvin)      0.03987     0.02353     0.01889
 Rotational constants (GHZ):           0.83083     0.49020     0.39365
 Zero-point vibrational energy     644806.8 (Joules/Mol)
                                  154.11252 (Kcal/Mol)
 Warning -- explicit consideration of  24 degrees of freedom as
           vibrations may cause significant error
 Vibrational temperatures:     47.56    49.57    74.78    78.13   109.45
          (Kelvin)            130.03   150.86   171.29   227.54   237.53
                              305.67   402.73   437.12   454.14   502.03
                              549.63   562.11   597.51   620.43   706.53
                              711.61   751.61   773.35   847.07   911.38
                              936.47   947.38   986.36  1073.08  1097.21
                             1136.71  1173.73  1184.84  1216.60  1234.71
                             1309.03  1353.67  1367.22  1381.78  1398.46
                             1472.92  1474.24  1478.84  1505.64  1540.19
                             1589.74  1628.34  1670.50  1729.09  1782.20
                             1798.34  1895.04  1904.72  1943.14  1946.32
                             1968.33  2034.57  2087.49  2092.22  2119.78
                             2123.57  2153.13  2232.28  2312.82  2378.04
                             2412.53  2420.39  2437.72  2582.96  4374.33
                             4455.11  4493.78  4494.82  4517.54  4521.79
                             4531.49  4555.39  4556.87  4580.56  4634.03
                             4634.74  5110.98  5240.54  5480.90

 Zero-point correction=                           0.245594 (Hartree/Particle)
 Thermal correction to Energy=                    0.262110
 Thermal correction to Enthalpy=                  0.263054
 Thermal correction to Gibbs Free Energy=         0.200229
 Sum of electronic and zero-point Energies=           -671.498108
 Sum of electronic and thermal Energies=              -671.481592
 Sum of electronic and thermal Enthalpies=            -671.480648
 Sum of electronic and thermal Free Energies=         -671.543473

                     E (Thermal)             CV                S
                      KCal/Mol        Cal/Mol-Kelvin    Cal/Mol-Kelvin
 Total                  164.476             60.497            132.226
 Electronic               0.000              0.000              0.000
 Translational            0.889              2.981             41.859
 Rotational               0.889              2.981             31.972
 Vibrational            162.699             54.536             58.394
 Vibration     1          0.594              1.983              5.637
 Vibration     2          0.594              1.983              5.555
 Vibration     3          0.596              1.977              4.741
 Vibration     4          0.596              1.976              4.654
 Vibration     5          0.599              1.965              3.990
 Vibration     6          0.602              1.956              3.652
 Vibration     7          0.605              1.945              3.362
 Vibration     8          0.609              1.933              3.116
 Vibration     9          0.621              1.893              2.572
 Vibration    10          0.623              1.885              2.491
 Vibration    11          0.643              1.822              2.023
 Vibration    12          0.680              1.711              1.534
 Vibration    13          0.695              1.666              1.396
 Vibration    14          0.703              1.644              1.333
 Vibration    15          0.726              1.577              1.171
 Vibration    16          0.751              1.509              1.031
 Vibration    17          0.758              1.490              0.998
 Vibration    18          0.779              1.437              0.908
 Vibration    19          0.792              1.402              0.855
 Vibration    20          0.847              1.270              0.681
 Vibration    21          0.850              1.262              0.672
 Vibration    22          0.877              1.200              0.604
 Vibration    23          0.893              1.167              0.571
 Vibration    24          0.946              1.056              0.469

                           ! Non-Optimized Parameters !
 Normal termination of Gaussian 16 at Thu Apr 21 15:29:08 2022.
 Gaussian 16:  ES64L-G16RevA.03 25-Dec-2016

 ----------------------------------------------------------------------
 #P B3LYP/6-311++G(d,p) Geom=Allcheck SCF=Tight EmpiricalDispersion=GD3
 BJ Pop=CHELPG SP IOp(6/33=2)
 ----------------------------------------------------------------------

 Structure from the checkpoint file:  "MAA1-AS1-5.chk"
 ----------------
 MAA1-AS1 geo opt
 ----------------
 Charge =  0 Multiplicity = 1

                         Standard orientation:
 ---------------------------------------------------------------------
 Center     Atomic      Atomic             Coordinates (Angstroms)
 Number     Number       Type             X           Y           Z
 ---------------------------------------------------------------------
      1          6           0       -0.863520   -2.594983   -0.841747
      2          6           0       -1.023160   -1.665205    0.326780
      3          6           0       -0.138351   -1.593100    1.324747
      4          6           0       -2.204365   -0.749181    0.244258
      5          8           0       -2.805290   -0.544921   -0.781960
      6          8           0       -2.604190   -0.122589    1.381178
      7          1           0        0.033335   -3.204557   -0.728693
      8          1           0       -0.791627   -2.022496   -1.768665
      9          1           0       -1.731308   -3.252221   -0.942474
     10          1           0        0.740104   -2.226308    1.338895
     11          1           0       -0.201717   -0.867560    2.127544
     12          1           0       -2.082780   -0.434348    2.130542
     13          6           0        3.935464   -1.124977   -0.298207
     14          6           0        3.330481   -0.147507    0.386991
     15          6           0        2.069354    0.521887    0.060140
     16          6           0        1.480750    1.385819    0.995649
     17          6           0        0.257085    1.996945    0.760435
     18          6           0       -0.432229    1.769413   -0.439034
     19          6           0        0.171124    0.938910   -1.401571
     20          6           0        1.389448    0.334769   -1.154505
     21          7           0       -1.656571    2.371066   -0.698203
     22          1           0        4.873714   -1.544825    0.042460
     23          1           0        3.525463   -1.534735   -1.214657
     24          1           0        3.802442    0.198247    1.304630
     25          1           0        1.989780    1.567963    1.936942
     26          1           0       -0.178018    2.648559    1.511039
     27          1           0       -0.339933    0.767595   -2.342197
     28          1           0        1.819033   -0.302891   -1.918062
     29          1           0       -2.268844    1.825957   -1.291617
     30          1           0       -2.150292    2.687502    0.124383
 ---------------------------------------------------------------------

 SCF Done:  E(RB3LYP) =  -671.743702114     A.U. after   16 cycles

 The electronic state is 1-A.
 Alpha  occ. eigenvalues --  -19.18044 -19.12048 -14.31928 -10.31640 -10.22035
 Alpha  occ. eigenvalues --  -10.21208 -10.19748 -10.18155 -10.18144 -10.18006
 Alpha  occ. eigenvalues --  -10.17873 -10.17750 -10.17509 -10.17414 -10.16596
 Alpha  occ. eigenvalues --   -1.11780  -1.03636  -0.92694  -0.85515  -0.82846
 Alpha  occ. eigenvalues --   -0.78568  -0.75580  -0.71918  -0.71060  -0.65618
 Alpha  occ. eigenvalues --   -0.63027  -0.61635  -0.61161  -0.56705  -0.52896
 Alpha  occ. eigenvalues --   -0.52269  -0.51565  -0.48310  -0.48128  -0.47071
 Alpha  occ. eigenvalues --   -0.45533  -0.44663  -0.44264  -0.43511  -0.42927
 Alpha  occ. eigenvalues --   -0.42073  -0.41723  -0.39618  -0.39121  -0.38766
 Alpha  occ. eigenvalues --   -0.38150  -0.35806  -0.34637  -0.33875  -0.33646
 Alpha  occ. eigenvalues --   -0.29613  -0.28920  -0.27446  -0.26310  -0.20577
 Alpha virt. eigenvalues --   -0.06396  -0.04086  -0.01983  -0.01861  -0.00397
 Alpha virt. eigenvalues --    0.00087   0.00682   0.01705   0.01937   0.02358
 Alpha virt. eigenvalues --    0.02886   0.03046   0.04355   0.04524   0.04874

 Mulliken charges:
               1
     1  C   -0.692029
     2  C    1.110460
     3  C   -0.401772
     4  C   -0.747970
     5  O   -0.220435
     6  O   -0.036630
     7  H    0.123025
     8  H    0.211053
     9  H    0.180219
    10  H    0.176388
    11  H    0.123948
    12  H    0.226865
    13  C   -0.361817
    14  C   -0.524421
    15  C    1.170529
    16  C    0.018397
    17  C   -0.344207
    18  C   -0.283201
    19  C   -0.038742
    20  C   -1.023579
    21  N   -0.241470
    22  H    0.154899
    23  H    0.122175
    24  H    0.152826
    25  H    0.168582
    26  H    0.157826
    27  H    0.194883
    28  H    0.114836
    29  H    0.261877
    30  H    0.247487
 Sum of Mulliken charges =  -0.00000

 Dipole moment (field-independent basis, Debye):
    X=              1.0714    Y=             -1.5810    Z=              2.5220  Tot=              3.1635
 Quadrupole moment (field-independent basis, Debye-Ang):
   XX=           -100.8488   YY=            -90.7629   ZZ=            -83.8349
   XY=             -3.9409   XZ=             -1.5038   YZ=              4.1382

 ESP charges:
               1
     1  C   -0.013269
     2  C   -0.030811
     3  C   -0.354668
     4  C    0.747860
     5  O   -0.547205
     6  O   -0.591526
     7  H    0.030509
     8  H    0.048926
     9  H   -0.001421
    10  H    0.151152
    11  H    0.144021
    12  H    0.349959
    13  C   -0.325469
    14  C   -0.133528
    15  C    0.178176
    16  C   -0.168105
    17  C   -0.274081
    18  C    0.552007
    19  C   -0.276312
    20  C   -0.113974
    21  N   -0.993185
    22  H    0.117684
    23  H    0.135747
    24  H    0.092555
    25  H    0.102010
    26  H    0.129399
    27  H    0.138862
    28  H    0.089633
    29  H    0.418908
    30  H    0.396145
 Sum of ESP charges =   0.00000

 Normal termination of Gaussian 16 at Thu Apr 21 15:41:39 2022.
