 Gaussian 16, Revision A.03,

 ---------------------------------------------------------------------
 #n B3LYP/6-311++G(d,p) Opt freq EmpiricalDispersion=GD3BJ IOp(6/33=2)
 ---------------------------------------------------------------------

 ----------------
 MAA1-AS1 geo opt
 ----------------
 Symbolic Z-matrix:
 Charge =  0 Multiplicity = 1

 SCF Done:  E(RB3LYP) =  -671.697212309     A.U. after   16 cycles
 SCF Done:  E(RB3LYP) =  -671.726419637     A.U. after   13 cycles
 SCF Done:  E(RB3LYP) =  -671.733223185     A.U. after   16 cycles
 SCF Done:  E(RB3LYP) =  -671.720866533     A.U. after   16 cycles
 SCF Done:  E(RB3LYP) =  -671.730383182     A.U. after   14 cycles
 SCF Done:  E(RB3LYP) =  -671.735012539     A.U. after   12 cycles
 SCF Done:  E(RB3LYP) =  -671.736290975     A.U. after   15 cycles
 SCF Done:  E(RB3LYP) =  -671.736799453     A.U. after   16 cycles
 SCF Done:  E(RB3LYP) =  -671.736948128     A.U. after   16 cycles
 SCF Done:  E(RB3LYP) =  -671.737425587     A.U. after   15 cycles
 SCF Done:  E(RB3LYP) =  -671.743087084     A.U. after   12 cycles
 SCF Done:  E(RB3LYP) =  -671.743093946     A.U. after   12 cycles
 SCF Done:  E(RB3LYP) =  -671.743104340     A.U. after   12 cycles
 SCF Done:  E(RB3LYP) =  -671.743107244     A.U. after   11 cycles
 SCF Done:  E(RB3LYP) =  -671.743107472     A.U. after   12 cycles
 SCF Done:  E(RB3LYP) =  -671.743108889     A.U. after   11 cycles
 SCF Done:  E(RB3LYP) =  -671.743108966     A.U. after   10 cycles
 SCF Done:  E(RB3LYP) =  -671.743109001     A.U. after    8 cycles
 Optimization completed.
    -- Stationary point found.
 Normal termination of Gaussian 16 at Tue Dec  7 18:58:36 2021.

 ----------------------------------------------------------------------
 #N Geom=AllCheck Guess=TCheck SCRF=Check Test GenChk RB3LYP/6-311++G(d
 ,p) Freq
 ----------------------------------------------------------------------

 Structure from the checkpoint file:  "MAA1-AS1-1.chk"
 ----------------
 MAA1-AS1 geo opt
 ----------------
 Charge =  0 Multiplicity = 1

 SCF Done:  E(RB3LYP) =  -671.743109001     A.U. after    1 cycles

  Exact polarizability: 196.260 -37.857 158.656  26.414  13.558 141.753
 Approx polarizability: 294.816 -72.860 245.710  56.368  31.451 248.420

                      1                      2                      3
                      A                      A                      A
 Frequencies --     30.0319                32.2119                46.4994
 Red. masses --      4.2341                 4.7897                 4.1106
 Frc consts  --      0.0022                 0.0029                 0.0052
 IR Inten    --      0.4834                 2.0056                 3.6235

                      4                      5                      6
                      A                      A                      A
 Frequencies --     58.7449                62.8927                90.5702
 Red. masses --      3.6148                 3.5637                 4.6943
 Frc consts  --      0.0073                 0.0083                 0.0227
 IR Inten    --      1.0483                 0.3620                13.4032

                      7                      8                      9
                      A                      A                      A
 Frequencies --     99.4912               113.1057               162.2648
 Red. masses --      3.2297                 5.7329                 2.8413
 Frc consts  --      0.0188                 0.0432                 0.0441
 IR Inten    --      0.9968                 0.1282                 7.2165

                     10                     11                     12
                      A                      A                      A
 Frequencies --    213.3536               221.1171               289.0268
 Red. masses --      3.2983                 1.0718                 3.5050
 Frc consts  --      0.0885                 0.0309                 0.1725
 IR Inten    --      0.8719                 2.7649                 4.3232

                     13                     14                     15
                      A                      A                      A
 Frequencies --    313.4206               317.5072               355.7183
 Red. masses --      1.7445                 1.3818                 3.1210
 Frc consts  --      0.1010                 0.0821                 0.2327
 IR Inten    --      8.5940                15.3358                17.8242

                     16                     17                     18
                      A                      A                      A
 Frequencies --    384.5048               393.5290               416.0453
 Red. masses --      3.3776                 2.7317                 2.9958
 Frc consts  --      0.2942                 0.2493                 0.3055
 IR Inten    --      0.1845                 0.5070                 0.2041

                     19                     20                     21
                      A                      A                      A
 Frequencies --    430.4465               478.6495               495.7360
 Red. masses --      4.3616                 1.2426                 2.2710
 Frc consts  --      0.4761                 0.1677                 0.3288
 IR Inten    --      2.0686               131.4910                39.4223

                     22                     23                     24
                      A                      A                      A
 Frequencies --    519.9039               537.3246               579.8692
 Red. masses --      3.5738                 3.1133                 4.0763
 Frc consts  --      0.5691                 0.5296                 0.8076
 IR Inten    --      9.9478                17.6874                 5.1674

                     25                     26                     27
                      A                      A                      A
 Frequencies --    650.7951               659.0542               661.9993
 Red. masses --      1.8146                 5.1634                 1.4656
 Frc consts  --      0.4528                 1.3214                 0.3784
 IR Inten    --     20.9884                 2.8045                15.6042

                     28                     29                     30
                      A                      A                      A
 Frequencies --    692.7868               746.0430               761.2669
 Red. masses --      1.4891                 2.9438                 2.7981
 Frc consts  --      0.4211                 0.9653                 0.9554
 IR Inten    --    381.0037                 7.1914                48.2215

                     31                     32                     33
                      A                      A                      A
 Frequencies --    787.2702               822.7050               825.6915
 Red. masses --      6.0063                 1.8673                 1.5385
 Frc consts  --      2.1933                 0.7447                 0.6180
 IR Inten    --      5.4429                16.8087                14.3045

                     34                     35                     36
                      A                      A                      A
 Frequencies --    846.3673               859.7007               908.6204
 Red. masses --      1.9984                 3.7151                 1.3751
 Frc consts  --      0.8434                 1.6178                 0.6689
 IR Inten    --     64.2349                26.8614                46.1081

                     37                     38                     39
                      A                      A                      A
 Frequencies --    950.3550               950.9804               969.7077
 Red. masses --      1.6457                 1.4457                 1.3475
 Frc consts  --      0.8757                 0.7703                 0.7466
 IR Inten    --      1.3258                 1.0088                 0.3375

                     40                     41                     42
                      A                      A                      A
 Frequencies --    983.7895              1023.3104              1023.8711
 Red. masses --      1.3403                 1.2945                 1.1978
 Frc consts  --      0.7643                 0.7987                 0.7398
 IR Inten    --     37.2351                11.1370                12.9953

                     43                     44                     45
                      A                      A                      A
 Frequencies --   1027.8000              1045.9335              1071.6080
 Red. masses --      2.7425                 1.5044                 1.4764
 Frc consts  --      1.7069                 0.9697                 0.9989
 IR Inten    --      0.5284                 2.1325                 0.6391

                     46                     47                     48
                      A                      A                      A
 Frequencies --   1107.0004              1146.6319              1162.2129
 Red. masses --      1.4814                 2.7827                 1.2126
 Frc consts  --      1.0696                 2.1556                 0.9651
 IR Inten    --      6.5900                36.9931                 6.3041

                     49                     50                     51
                      A                      A                      A
 Frequencies --   1202.5037              1238.1499              1257.8042
 Red. masses --      1.1718                 2.2431                 1.7739
 Frc consts  --      0.9983                 2.0261                 1.6535
 IR Inten    --     31.9123                 4.4427                60.7417

                     52                     53                     54
                      A                      A                      A
 Frequencies --   1317.9577              1324.5689              1329.9047
 Red. masses --      2.0224                 2.6877                 2.8031
 Frc consts  --      2.0697                 2.7784                 2.9210
 IR Inten    --     20.4207                50.8506               247.7619

                     55                     56                     57
                      A                      A                      A
 Frequencies --   1351.5544              1366.4953              1412.1718
 Red. masses --      1.6031                 2.0135                 1.1898
 Frc consts  --      1.7254                 2.2152                 1.3980
 IR Inten    --     22.4152                 1.8001                13.7722

                     58                     59                     60
                      A                      A                      A
 Frequencies --   1435.8077              1451.1336              1475.3999
 Red. masses --      1.2446                 1.4817                 2.1553
 Frc consts  --      1.5117                 1.8384                 2.7643
 IR Inten    --     18.1545                10.9393                 2.7324

                     61                     62                     63
                      A                      A                      A
 Frequencies --   1492.6060              1498.9184              1551.0355
 Red. masses --      1.0417                 1.0561                 2.6541
 Frc consts  --      1.3673                 1.3981                 3.7620
 IR Inten    --      9.4458                 7.4126                75.4714

                     64                     65                     66
                      A                      A                      A
 Frequencies --   1606.8643              1652.5109              1678.7408
 Red. masses --      5.4291                 4.2138                 1.8517
 Frc consts  --      8.2592                 6.7798                 3.0745
 IR Inten    --      4.5898               106.9043               121.2444

                     67                     68                     69
                      A                      A                      A
 Frequencies --   1683.4620              1694.2761              1800.8288
 Red. masses --      1.9643                 5.5428                 9.8572
 Frc consts  --      3.2799                 9.3745                18.8342
 IR Inten    --     27.8403                37.1286               199.6180

                     70                     71                     72
                      A                      A                      A
 Frequencies --   3005.4804              3068.4871              3116.6917
 Red. masses --      1.0469                 1.0920                 1.0976
 Frc consts  --      5.5714                 6.0579                 6.2819
 IR Inten    --     19.8142                 1.6648                 5.4890

                     73                     74                     75
                      A                      A                      A
 Frequencies --   3124.3241              3140.6605              3147.1264
 Red. masses --      1.0844                 1.0637                 1.0600
 Frc consts  --      6.2365                 6.1818                 6.1858
 IR Inten    --     15.4339                 2.4689                 4.2432

                     76                     77                     78
                      A                      A                      A
 Frequencies --   3155.4529              3158.1180              3179.3484
 Red. masses --      1.0876                 1.0878                 1.0925
 Frc consts  --      6.3805                 6.3922                 6.5065
 IR Inten    --     18.8129                 5.7465                17.5552

                     79                     80                     81
                      A                      A                      A
 Frequencies --   3181.6332              3221.5724              3240.5818
 Red. masses --      1.0935                 1.1149                 1.1169
 Frc consts  --      6.5221                 6.8173                 6.9105
 IR Inten    --      1.4004                13.1166                 0.8435

                     82                     83                     84
                      A                      A                      A
 Frequencies --   3547.6857              3640.8706              3805.6456
 Red. masses --      1.0498                 1.0959                 1.0655
 Frc consts  --      7.7849                 8.5590                 9.0919
 IR Inten    --     57.2334                24.3254                45.5725

 - Thermochemistry -
 -------------------
 Temperature   298.150 Kelvin.  Pressure   1.00000 Atm.
 Atom     1 has atomic number  6 and mass  12.00000

 Molecular mass:   205.11028 amu.
 Principal axes and moments of inertia in atomic units:
                           1         2         3
     Eigenvalues --  2126.288784070.193745028.21900
           X            0.99983  -0.01431   0.01202
           Y            0.01410   0.99975   0.01722
           Z           -0.01226  -0.01704   0.99978
 This molecule is an asymmetric top.
 Rotational symmetry number  1.
 Warning -- assumption of classical behavior for rotation
           may cause significant error
 Rotational temperatures (Kelvin)      0.04073     0.02128     0.01723
 Rotational constants (GHZ):           0.84878     0.44340     0.35892
 Zero-point vibrational energy     645288.7 (Joules/Mol)
                                  154.22769 (Kcal/Mol)
 Warning -- explicit consideration of  24 degrees of freedom as
           vibrations may cause significant error
 Vibrational temperatures:     43.21    46.35    66.90    84.52    90.49
          (Kelvin)            130.31   143.15   162.73   233.46   306.97
                              318.14   415.85   450.94   456.82   511.80
                              553.22   566.20   598.60   619.32   688.67
                              713.25   748.03   773.09   834.30   936.35
                              948.23   952.47   996.77  1073.39  1095.29
                             1132.71  1183.69  1187.99  1217.73  1236.92
                             1307.30  1367.35  1368.25  1395.19  1415.45
                             1472.32  1473.12  1478.77  1504.86  1541.80
                             1592.73  1649.75  1672.17  1730.13  1781.42
                             1809.70  1896.25  1905.76  1913.44  1944.59
                             1966.08  2031.80  2065.81  2087.86  2122.77
                             2147.53  2156.61  2231.59  2311.92  2377.59
                             2415.33  2422.13  2437.69  2590.99  4324.22
                             4414.87  4484.22  4495.21  4518.71  4528.01
                             4539.99  4543.83  4574.37  4577.66  4635.12
                             4662.47  5104.33  5238.40  5475.48

 Zero-point correction=                           0.245777 (Hartree/Particle)
 Thermal correction to Energy=                    0.262209
 Thermal correction to Enthalpy=                  0.263154
 Thermal correction to Gibbs Free Energy=         0.200164
 Sum of electronic and zero-point Energies=           -671.497332
 Sum of electronic and thermal Energies=              -671.480900
 Sum of electronic and thermal Enthalpies=            -671.479955
 Sum of electronic and thermal Free Energies=         -671.542945

                     E (Thermal)             CV                S
                      KCal/Mol        Cal/Mol-Kelvin    Cal/Mol-Kelvin
 Total                  164.539             60.290            132.573
 Electronic               0.000              0.000              0.000
 Translational            0.889              2.981             41.859
 Rotational               0.889              2.981             32.143
 Vibrational            162.761             54.328             58.571
 Vibration     1          0.594              1.984              5.827
 Vibration     2          0.594              1.983              5.688
 Vibration     3          0.595              1.979              4.961
 Vibration     4          0.596              1.974              4.499
 Vibration     5          0.597              1.972              4.364
 Vibration     6          0.602              1.956              3.648
 Vibration     7          0.604              1.949              3.464
 Vibration     8          0.607              1.939              3.215
 Vibration     9          0.622              1.889              2.523
 Vibration    10          0.644              1.821              2.015
 Vibration    11          0.648              1.809              1.950
 Vibration    12          0.686              1.694              1.480
 Vibration    13          0.701              1.648              1.344
 Vibration    14          0.704              1.640              1.323
 Vibration    15          0.731              1.564              1.141
 Vibration    16          0.753              1.503              1.021
 Vibration    17          0.761              1.484              0.987
 Vibration    18          0.779              1.435              0.906
 Vibration    19          0.792              1.404              0.857
 Vibration    20          0.835              1.297              0.714
 Vibration    21          0.851              1.259              0.669
 Vibration    22          0.875              1.206              0.610
 Vibration    23          0.892              1.167              0.571
 Vibration    24          0.937              1.075              0.486

                           ! Non-Optimized Parameters !
 Normal termination of Gaussian 16 at Tue Dec  7 19:04:31 2021.
 Gaussian 16:  AM64L-G16RevA.03 25-Dec-2016

 ----------------------------------------------------------------------
 #P B3LYP/6-311++G(d,p) Geom=Allcheck SCF=Tight EmpiricalDispersion=GD3
 BJ Pop=CHELPG SP IOp(6/33=2)
 ----------------------------------------------------------------------

 Structure from the checkpoint file:  "MAA1-AS1-1.chk"
 ----------------
 MAA1-AS1 geo opt
 ----------------
 Charge =  0 Multiplicity = 1

                         Standard orientation:
 ---------------------------------------------------------------------
 Center     Atomic      Atomic             Coordinates (Angstroms)
 Number     Number       Type             X           Y           Z
 ---------------------------------------------------------------------
      1          6           0        0.517860    2.044351   -1.001583
      2          6           0        1.652520    1.640911   -0.097778
      3          6           0        2.059374    2.368424    0.943704
      4          6           0        2.375796    0.351597   -0.361045
      5          8           0        3.143036   -0.173774    0.407097
      6          8           0        2.136357   -0.240124   -1.559952
      7          1           0        0.858530    2.229773   -2.027987
      8          1           0        0.056082    2.966179   -0.647914
      9          1           0       -0.262324    1.277426   -1.025797
     10          1           0        1.584401    3.310585    1.190466
     11          1           0        2.874584    2.026171    1.568420
     12          1           0        1.446660    0.230957   -2.043209
     13          6           0       -4.288892    0.983307   -0.507695
     14          6           0       -3.319372    0.835341    0.402591
     15          6           0       -2.180984   -0.085837    0.359158
     16          6           0       -1.212345   -0.036934    1.372008
     17          6           0       -0.099262   -0.865230    1.366499
     18          6           0        0.092061   -1.794678    0.333824
     19          6           0       -0.879440   -1.859900   -0.683186
     20          6           0       -1.985503   -1.027513   -0.666279
     21          7           0        1.187454   -2.645774    0.335421
     22          1           0       -5.084133    1.703279   -0.360076
     23          1           0       -4.329407    0.398300   -1.419766
     24          1           0       -3.354196    1.465461    1.289099
     25          1           0       -1.330212    0.679189    2.178712
     26          1           0        0.637624   -0.791189    2.157672
     27          1           0       -0.755370   -2.576680   -1.488457
     28          1           0       -2.711216   -1.110116   -1.466879
     29          1           0        2.014942   -2.263895    0.776651
     30          1           0        1.415832   -3.036870   -0.567344
 ---------------------------------------------------------------------

 SCF Done:  E(RB3LYP) =  -671.743109001     A.U. after   16 cycles

 The electronic state is 1-A.
 Alpha  occ. eigenvalues --  -19.18142 -19.11921 -14.31791 -10.31745 -10.22051
 Alpha  occ. eigenvalues --  -10.21235 -10.19282 -10.19239 -10.18147 -10.18080
 Alpha  occ. eigenvalues --  -10.18023 -10.17972 -10.17740 -10.17258 -10.16510
 Alpha  occ. eigenvalues --   -1.11861  -1.03610  -0.92631  -0.85518  -0.83058
 Alpha  occ. eigenvalues --   -0.78510  -0.75589  -0.71973  -0.71798  -0.65848
 Alpha  occ. eigenvalues --   -0.62975  -0.61684  -0.61126  -0.56657  -0.52813
 Alpha  occ. eigenvalues --   -0.51799  -0.51547  -0.48534  -0.47946  -0.47349
 Alpha  occ. eigenvalues --   -0.45529  -0.45376  -0.44613  -0.43524  -0.42829
 Alpha  occ. eigenvalues --   -0.42376  -0.41749  -0.40434  -0.39467  -0.38749
 Alpha  occ. eigenvalues --   -0.38181  -0.35767  -0.34492  -0.34063  -0.33706
 Alpha  occ. eigenvalues --   -0.29819  -0.28801  -0.27583  -0.26284  -0.20491
 Alpha virt. eigenvalues --   -0.06611  -0.04046  -0.02135  -0.01647  -0.00404
 Alpha virt. eigenvalues --    0.00248   0.00617   0.01614   0.01998   0.02233
 Alpha virt. eigenvalues --    0.02810   0.03710   0.04146   0.04554   0.04828

 Mulliken charges:
               1
     1  C   -0.673393
     2  C    1.067629
     3  C   -0.634204
     4  C   -0.561942
     5  O   -0.250434
     6  O    0.014400
     7  H    0.166255
     8  H    0.163797
     9  H    0.202994
    10  H    0.130391
    11  H    0.202788
    12  H    0.227109
    13  C   -0.524823
    14  C   -0.399879
    15  C    0.845050
    16  C    0.004800
    17  C    0.025158
    18  C   -0.747070
    19  C    0.074067
    20  C   -0.724738
    21  N   -0.211774
    22  H    0.154913
    23  H    0.114531
    24  H    0.148173
    25  H    0.184003
    26  H    0.196626
    27  H    0.168811
    28  H    0.124487
    29  H    0.262938
    30  H    0.249336
 Sum of Mulliken charges =  -0.00000

 Dipole moment (field-independent basis, Debye):
    X=             -0.9612    Y=              2.5951    Z=             -1.7127  Tot=              3.2545
 Quadrupole moment (field-independent basis, Debye-Ang):
   XX=           -103.6021   YY=            -87.5371   ZZ=            -85.1358
   XY=              0.5466   XZ=              1.6842   YZ=              5.6570

 ESP charges:
               1
     1  C   -0.067266
     2  C   -0.026288
     3  C   -0.296414
     4  C    0.710849
     5  O   -0.539142
     6  O   -0.601407
     7  H    0.010265
     8  H    0.056499
     9  H    0.015836
    10  H    0.149369
    11  H    0.132804
    12  H    0.385887
    13  C   -0.357142
    14  C   -0.117287
    15  C    0.169693
    16  C   -0.196531
    17  C   -0.250031
    18  C    0.598558
    19  C   -0.327120
    20  C   -0.117601
    21  N   -1.007470
    22  H    0.132130
    23  H    0.133318
    24  H    0.095136
    25  H    0.115274
    26  H    0.129042
    27  H    0.136182
    28  H    0.110534
    29  H    0.422447
    30  H    0.399874
 Sum of ESP charges =  -0.00000

 Normal termination of Gaussian 16 at Tue Dec  7 19:50:07 2021.
