 Gaussian 16, Revision A.03,

 ---------------------------------------------------------------------
 #n B3LYP/6-311++G(d,p) Opt freq EmpiricalDispersion=GD3BJ IOp(6/33=2)
 ---------------------------------------------------------------------

 --------------
 DMAEMA geo opt
 --------------
 Symbolic Z-matrix:
 Charge =  0 Multiplicity = 1

 SCF Done:  E(RB3LYP) =  -519.202356712     A.U. after   14 cycles
 SCF Done:  E(RB3LYP) =  -519.227243281     A.U. after   15 cycles
 SCF Done:  E(RB3LYP) =  -519.226575864     A.U. after   14 cycles
 SCF Done:  E(RB3LYP) =  -519.235781844     A.U. after   13 cycles
 SCF Done:  E(RB3LYP) =  -519.241567577     A.U. after   14 cycles
 SCF Done:  E(RB3LYP) =  -519.247240770     A.U. after   13 cycles
 SCF Done:  E(RB3LYP) =  -519.249636770     A.U. after   13 cycles
 SCF Done:  E(RB3LYP) =  -519.250505590     A.U. after   12 cycles
 SCF Done:  E(RB3LYP) =  -519.251122138     A.U. after   11 cycles
 SCF Done:  E(RB3LYP) =  -519.251353051     A.U. after   11 cycles
 SCF Done:  E(RB3LYP) =  -519.254692701     A.U. after   11 cycles
 SCF Done:  E(RB3LYP) =  -519.254842506     A.U. after   11 cycles
 SCF Done:  E(RB3LYP) =  -519.254868953     A.U. after   11 cycles
 SCF Done:  E(RB3LYP) =  -519.254880799     A.U. after    9 cycles
 SCF Done:  E(RB3LYP) =  -519.254884623     A.U. after   10 cycles
 SCF Done:  E(RB3LYP) =  -519.254884720     A.U. after    9 cycles
 SCF Done:  E(RB3LYP) =  -519.254884589     A.U. after    9 cycles
 SCF Done:  E(RB3LYP) =  -519.254884547     A.U. after    7 cycles
 Optimization completed.
    -- Stationary point found.
 Normal termination of Gaussian 16 at Thu Apr 21 16:40:55 2022.

 ----------------------------------------------------------------------
 #N Geom=AllCheck Guess=TCheck SCRF=Check Test GenChk RB3LYP/6-311++G(d
 ,p) Freq
 ----------------------------------------------------------------------

 Structure from the checkpoint file:  "DMAEMA-5.chk"
 --------------
 DMAEMA geo opt
 --------------
 Charge =  0 Multiplicity = 1

 SCF Done:  E(RB3LYP) =  -519.254884547     A.U. after    1 cycles

  Exact polarizability: 130.464  -6.457 112.535  12.433  -4.958 102.533
 Approx polarizability: 162.782 -11.872 170.297  20.878 -10.498 144.498

                      1                      2                      3
                      A                      A                      A
 Frequencies --     34.2481                38.5665                71.9835
 Red. masses --      3.1560                 3.5636                 3.9065
 Frc consts  --      0.0022                 0.0031                 0.0119
 IR Inten    --      0.7150                 0.7274                 0.8917

                      4                      5                      6
                      A                      A                      A
 Frequencies --     97.3004               130.9106               190.5982
 Red. masses --      4.0891                 2.9387                 2.0255
 Frc consts  --      0.0228                 0.0297                 0.0434
 IR Inten    --      3.0997                 0.4440                 0.9465

                      7                      8                      9
                      A                      A                      A
 Frequencies --    196.7981               239.9424               250.1890
 Red. masses --      1.3647                 1.2456                 1.2336
 Frc consts  --      0.0311                 0.0423                 0.0455
 IR Inten    --      1.1634                 0.2231                 0.1898

                     10                     11                     12
                      A                      A                      A
 Frequencies --    275.7550               326.8376               374.7596
 Red. masses --      2.0352                 2.8110                 2.6046
 Frc consts  --      0.0912                 0.1769                 0.2155
 IR Inten    --      0.1828                 1.8441                 7.1023

                     13                     14                     15
                      A                      A                      A
 Frequencies --    385.2647               393.6336               401.4726
 Red. masses --      2.5006                 2.9790                 2.4110
 Frc consts  --      0.2187                 0.2720                 0.2290
 IR Inten    --      2.2574                12.9084                 0.6805

                     16                     17                     18
                      A                      A                      A
 Frequencies --    439.3789               483.9189               571.4295
 Red. masses --      2.1728                 4.0210                 2.6080
 Frc consts  --      0.2471                 0.5548                 0.5017
 IR Inten    --      0.3467                 9.4809                 4.2335

                     19                     20                     21
                      A                      A                      A
 Frequencies --    596.8085               663.9569               783.0936
 Red. masses --      3.5909                 1.3902                 2.9149
 Frc consts  --      0.7536                 0.3611                 1.0532
 IR Inten    --      3.6202                13.4413                17.3379

                     22                     23                     24
                      A                      A                      A
 Frequencies --    824.7149               841.5225               890.2910
 Red. masses --      2.5698                 4.5579                 2.5368
 Frc consts  --      1.0298                 1.9017                 1.1847
 IR Inten    --     17.0021                 7.0591                 3.3929

                     25                     26                     27
                      A                      A                      A
 Frequencies --    951.9738               969.1850               978.2920
 Red. masses --      1.8801                 2.2845                 1.3371
 Frc consts  --      1.0039                 1.2643                 0.7539
 IR Inten    --      0.9973                33.0587                33.9046

                     28                     29                     30
                      A                      A                      A
 Frequencies --   1028.8082              1040.1115              1065.6344
 Red. masses --      1.4336                 3.0415                 1.7113
 Frc consts  --      0.8940                 1.9386                 1.1449
 IR Inten    --      8.5711                26.6666                20.8260

                     31                     32                     33
                      A                      A                      A
 Frequencies --   1071.4394              1086.1701              1093.0385
 Red. masses --      1.4880                 2.0153                 1.7870
 Frc consts  --      1.0064                 1.4008                 1.2579
 IR Inten    --      0.0497                15.0535                 4.0793

                     34                     35                     36
                      A                      A                      A
 Frequencies --   1120.9590              1178.2169              1183.6269
 Red. masses --      1.3258                 1.5370                 3.9388
 Frc consts  --      0.9815                 1.2571                 3.2512
 IR Inten    --      6.3754                 2.8349               422.8375

                     37                     38                     39
                      A                      A                      A
 Frequencies --   1236.8769              1293.9509              1312.4241
 Red. masses --      2.2008                 1.7439                 3.1896
 Frc consts  --      1.9838                 1.7203                 3.2369
 IR Inten    --     13.5549                17.3848               153.9746

                     40                     41                     42
                      A                      A                      A
 Frequencies --   1316.3062              1319.8770              1401.3295
 Red. masses --      1.4588                 1.5345                 1.3517
 Frc consts  --      1.4893                 1.5750                 1.5639
 IR Inten    --      4.4475                27.5477                10.9502

                     43                     44                     45
                      A                      A                      A
 Frequencies --   1409.6786              1418.4451              1433.8114
 Red. masses --      1.1935                 1.3852                 1.2486
 Frc consts  --      1.3974                 1.6420                 1.5124
 IR Inten    --      9.1986                 3.1424                13.1492

                     46                     47                     48
                      A                      A                      A
 Frequencies --   1444.1486              1467.0588              1476.4493
 Red. masses --      1.1552                 1.1471                 1.0435
 Frc consts  --      1.4195                 1.4546                 1.3402
 IR Inten    --      1.5596                 0.6398                 7.6878

                     49                     50                     51
                      A                      A                      A
 Frequencies --   1484.8335              1485.9006              1493.3742
 Red. masses --      1.0869                 1.0520                 1.0577
 Frc consts  --      1.4118                 1.3685                 1.3898
 IR Inten    --      3.8716                 1.4615                19.7485

                     52                     53                     54
                      A                      A                      A
 Frequencies --   1496.2437              1498.8836              1510.6794
 Red. masses --      1.0997                 1.0824                 1.0538
 Frc consts  --      1.4505                 1.4328                 1.4170
 IR Inten    --     36.8091                15.4973                 6.1567

                     55                     56                     57
                      A                      A                      A
 Frequencies --   1513.0543              1694.7452              1770.1406
 Red. masses --      1.0541                 5.6345                10.5278
 Frc consts  --      1.4218                 9.5348                19.4358
 IR Inten    --     14.3216                41.1070               176.0377

                     58                     59                     60
                      A                      A                      A
 Frequencies --   2883.0329              2902.3555              2913.2122
 Red. masses --      1.0722                 1.0620                 1.0631
 Frc consts  --      5.2510                 5.2710                 5.3158
 IR Inten    --     69.0230                49.3013               234.0458

                     61                     62                     63
                      A                      A                      A
 Frequencies --   3034.9619              3055.3158              3061.8494
 Red. masses --      1.0350                 1.0697                 1.0843
 Frc consts  --      5.6167                 5.8832                 5.9891
 IR Inten    --     17.3554                22.7925                26.0721

                     64                     65                     66
                      A                      A                      A
 Frequencies --   3075.0548              3077.6119              3088.4945
 Red. masses --      1.0692                 1.0646                 1.0998
 Frc consts  --      5.9570                 5.9410                 6.1812
 IR Inten    --     48.8195                12.4039                12.4470

                     67                     68                     69
                      A                      A                      A
 Frequencies --   3099.1902              3111.0653              3125.8108
 Red. masses --      1.1033                 1.1032                 1.1013
 Frc consts  --      6.2439                 6.2909                 6.3398
 IR Inten    --     29.2604                21.5235                11.3667

                     70                     71                     72
                      A                      A                      A
 Frequencies --   3135.4014              3144.8334              3237.6847
 Red. masses --      1.1031                 1.0599                 1.1166
 Frc consts  --      6.3893                 6.1759                 6.8962
 IR Inten    --      8.4561                 8.6625                 2.2131

 - Thermochemistry -
 -------------------
 Temperature   298.150 Kelvin.  Pressure   1.00000 Atm.
 Atom     1 has atomic number  1 and mass   1.00783

 Molecular mass:   157.11028 amu.
 Principal axes and moments of inertia in atomic units:
                           1         2         3
     Eigenvalues --  1046.912682863.842442926.67568
           X            0.99991   0.01214   0.00489
           Y           -0.01216   0.99991   0.00498
           Z           -0.00483  -0.00504   0.99998
 This molecule is an asymmetric top.
 Rotational symmetry number  1.
 Warning -- assumption of classical behavior for rotation
           may cause significant error
 Rotational temperatures (Kelvin)      0.08273     0.03024     0.02959
 Rotational constants (GHZ):           1.72387     0.63018     0.61665
 Zero-point vibrational energy     590326.7 (Joules/Mol)
                                  141.09147 (Kcal/Mol)
 Warning -- explicit consideration of  19 degrees of freedom as
           vibrations may cause significant error
 Vibrational temperatures:     49.28    55.49   103.57   139.99   188.35
          (Kelvin)            274.23   283.15   345.22   359.97   396.75
                              470.25   539.20   554.31   566.35   577.63
                              632.17   696.25   822.16   858.67   955.29
                             1126.70  1186.58  1210.76  1280.93  1369.68
                             1394.44  1407.54  1480.23  1496.49  1533.21
                             1541.56  1562.76  1572.64  1612.81  1695.19
                             1702.98  1779.59  1861.71  1888.29  1893.87
                             1899.01  2016.20  2028.21  2040.83  2062.93
                             2077.81  2110.77  2124.28  2136.34  2137.88
                             2148.63  2152.76  2156.56  2173.53  2176.95
                             2438.36  2546.84  4148.04  4175.84  4191.46
                             4366.63  4395.92  4405.32  4424.32  4428.00
                             4443.65  4459.04  4476.13  4497.34  4511.14
                             4524.71  4658.31

 Zero-point correction=                           0.224844 (Hartree/Particle)
 Thermal correction to Energy=                    0.237612
 Thermal correction to Enthalpy=                  0.238556
 Thermal correction to Gibbs Free Energy=         0.185038
 Sum of electronic and zero-point Energies=           -519.030041
 Sum of electronic and thermal Energies=              -519.017272
 Sum of electronic and thermal Enthalpies=            -519.016328
 Sum of electronic and thermal Free Energies=         -519.069847

                     E (Thermal)             CV                S
                      KCal/Mol        Cal/Mol-Kelvin    Cal/Mol-Kelvin
 Total                  149.104             46.241            112.640
 Electronic               0.000              0.000              0.000
 Translational            0.889              2.981             41.065
 Rotational               0.889              2.981             30.552
 Vibrational            147.326             40.279             41.023
 Vibration     1          0.594              1.983              5.567
 Vibration     2          0.594              1.981              5.331
 Vibration     3          0.598              1.967              4.098
 Vibration     4          0.603              1.951              3.508
 Vibration     5          0.612              1.922              2.933
 Vibration     6          0.634              1.853              2.222
 Vibration     7          0.636              1.844              2.163
 Vibration     8          0.657              1.779              1.803
 Vibration     9          0.663              1.762              1.729
 Vibration    10          0.677              1.718              1.560
 Vibration    11          0.710              1.622              1.276
 Vibration    12          0.746              1.524              1.060
 Vibration    13          0.754              1.502              1.018
 Vibration    14          0.761              1.484              0.986
 Vibration    15          0.767              1.467              0.957
 Vibration    16          0.799              1.384              0.829
 Vibration    17          0.840              1.286              0.700
 Vibration    18          0.928              1.093              0.501
 Vibration    19          0.955              1.039              0.455

                           ! Non-Optimized Parameters !
 Normal termination of Gaussian 16 at Thu Apr 21 16:43:01 2022.
 Gaussian 16:  ES64L-G16RevA.03 25-Dec-2016

 ----------------------------------------------------------------------
 #P B3LYP/6-311++G(d,p) Geom=Allcheck SCF=Tight EmpiricalDispersion=GD3
 BJ Pop=CHELPG SP IOp(6/33=2)
 ----------------------------------------------------------------------

 Structure from the checkpoint file:  "DMAEMA-5.chk"
 --------------
 DMAEMA geo opt
 --------------
 Charge =  0 Multiplicity = 1

                         Standard orientation:
 ---------------------------------------------------------------------
 Center     Atomic      Atomic             Coordinates (Angstroms)
 Number     Number       Type             X           Y           Z
 ---------------------------------------------------------------------
      1          1           0       -2.931575    1.934110   -0.771191
      2          6           0       -3.153471    0.882373   -0.901266
      3          1           0       -4.025458    0.610103   -1.484501
      4          6           0       -2.367709   -0.049059   -0.356200
      5          6           0       -1.182793    0.424903    0.426600
      6          8           0       -0.855516    1.580980    0.565467
      7          8           0       -0.526726   -0.616294    0.987403
      8          6           0        0.727586   -0.342310    1.638892
      9          1           0        0.766881    0.710229    1.914240
     10          1           0        0.735146   -0.951273    2.543960
     11          6           0        1.879890   -0.755967    0.733627
     12          1           0        2.819374   -0.647363    1.312396
     13          1           0        1.765796   -1.818710    0.504004
     14          7           0        1.923036   -0.026506   -0.524005
     15          6           0        2.314803    1.368018   -0.359295
     16          1           0        3.326419    1.470822    0.076531
     17          1           0        2.311523    1.859439   -1.334145
     18          1           0        1.597946    1.891589    0.271949
     19          6           0        2.761707   -0.702148   -1.503004
     20          1           0        3.823899   -0.753720   -1.197863
     21          1           0        2.402000   -1.721480   -1.661044
     22          1           0        2.710495   -0.171903   -2.456429
     23          6           0       -2.602519   -1.527705   -0.494513
     24          1           0       -2.734010   -1.999065    0.482661
     25          1           0       -3.491224   -1.718137   -1.098384
     26          1           0       -1.745498   -2.015222   -0.966141
 ---------------------------------------------------------------------

 SCF Done:  E(RB3LYP) =  -519.254884547     A.U. after   14 cycles

 The electronic state is 1-A.
 Alpha  occ. eigenvalues --  -19.16615 -19.10604 -14.30985 -10.30031 -10.22936
 Alpha  occ. eigenvalues --  -10.20328 -10.19508 -10.18958 -10.18127 -10.17767
 Alpha  occ. eigenvalues --  -10.17008  -1.10666  -1.02052  -0.92913  -0.81848
 Alpha  occ. eigenvalues --   -0.76950  -0.70803  -0.69811  -0.68328  -0.62119
 Alpha  occ. eigenvalues --   -0.58050  -0.55430  -0.50607  -0.49395  -0.48036
 Alpha  occ. eigenvalues --   -0.47769  -0.46864  -0.44366  -0.43846  -0.42356
 Alpha  occ. eigenvalues --   -0.41148  -0.40170  -0.40007  -0.38985  -0.38242
 Alpha  occ. eigenvalues --   -0.37527  -0.36681  -0.36255  -0.34460  -0.30531
 Alpha  occ. eigenvalues --   -0.28151  -0.27221  -0.22378
 Alpha virt. eigenvalues --   -0.04981  -0.01070   0.00079   0.00549   0.01150
 Alpha virt. eigenvalues --    0.02237   0.02624   0.03176   0.03505   0.03656
 Alpha virt. eigenvalues --    0.04364   0.05168   0.05555   0.05836   0.06877

 Mulliken charges:
               1
     1  H    0.201326
     2  C   -0.652742
     3  H    0.130593
     4  C    0.940146
     5  C   -0.497487
     6  O   -0.263900
     7  O    0.015349
     8  C   -0.309319
     9  H    0.198521
    10  H    0.166371
    11  C   -0.276415
    12  H    0.109604
    13  H    0.172894
    14  N    0.079588
    15  C   -0.388420
    16  H    0.114375
    17  H    0.138620
    18  H    0.135523
    19  C   -0.299038
    20  H    0.118621
    21  H    0.125091
    22  H    0.131791
    23  C   -0.574527
    24  H    0.172742
    25  H    0.148619
    26  H    0.162075
 Sum of Mulliken charges =  -0.00000

 Dipole moment (field-independent basis, Debye):
    X=              0.6718    Y=             -1.9039    Z=             -0.1702  Tot=              2.0261
 Quadrupole moment (field-independent basis, Debye-Ang):
   XX=            -63.0636   YY=            -71.0745   ZZ=            -66.3596
   XY=              0.9805   XZ=              3.0274   YZ=             -1.6245

 ESP charges:
               1
     1  H    0.129729
     2  C   -0.301704
     3  H    0.142524
     4  C    0.008383
     5  C    0.576732
     6  O   -0.499331
     7  O   -0.296640
     8  C    0.009729
     9  H    0.099308
    10  H    0.051142
    11  C    0.140561
    12  H   -0.004407
    13  H    0.053313
    14  N   -0.307073
    15  C   -0.015067
    16  H    0.020251
    17  H    0.066158
    18  H    0.049789
    19  C   -0.187745
    20  H    0.059062
    21  H    0.090037
    22  H    0.100169
    23  C   -0.102895
    24  H    0.028862
    25  H    0.053364
    26  H    0.035749
 Sum of ESP charges =  -0.00000

 Normal termination of Gaussian 16 at Thu Apr 21 16:48:46 2022.
