 Gaussian 16, Revision A.03,

 ---------------------------------------------------------------------
 #n B3LYP/6-311++G(d,p) Opt freq EmpiricalDispersion=GD3BJ IOp(6/33=2)
 ---------------------------------------------------------------------

 --------------
 DMAEMA geo opt
 --------------
 Symbolic Z-matrix:
 Charge =  0 Multiplicity = 1

 SCF Done:  E(RB3LYP) =  -519.252666419     A.U. after   13 cycles
 SCF Done:  E(RB3LYP) =  -519.252753070     A.U. after   10 cycles
 SCF Done:  E(RB3LYP) =  -519.252753849     A.U. after   10 cycles
 SCF Done:  E(RB3LYP) =  -519.252772957     A.U. after   10 cycles
 SCF Done:  E(RB3LYP) =  -519.252781448     A.U. after   10 cycles
 SCF Done:  E(RB3LYP) =  -519.252790453     A.U. after   11 cycles
 SCF Done:  E(RB3LYP) =  -519.252795663     A.U. after   10 cycles
 SCF Done:  E(RB3LYP) =  -519.252799828     A.U. after   10 cycles
 SCF Done:  E(RB3LYP) =  -519.252805321     A.U. after   10 cycles
 SCF Done:  E(RB3LYP) =  -519.252911337     A.U. after   12 cycles
 SCF Done:  E(RB3LYP) =  -519.254762628     A.U. after   12 cycles
 SCF Done:  E(RB3LYP) =  -519.254842518     A.U. after   11 cycles
 SCF Done:  E(RB3LYP) =  -519.254871462     A.U. after   10 cycles
 SCF Done:  E(RB3LYP) =  -519.254880919     A.U. after   10 cycles
 SCF Done:  E(RB3LYP) =  -519.254883930     A.U. after    9 cycles
 SCF Done:  E(RB3LYP) =  -519.254884315     A.U. after    8 cycles
 SCF Done:  E(RB3LYP) =  -519.254884422     A.U. after    8 cycles
 SCF Done:  E(RB3LYP) =  -519.254884487     A.U. after    7 cycles
 Optimization completed.
    -- Stationary point found.
 Normal termination of Gaussian 16 at Thu Apr 21 16:40:01 2022.

 ----------------------------------------------------------------------
 #N Geom=AllCheck Guess=TCheck SCRF=Check Test GenChk RB3LYP/6-311++G(d
 ,p) Freq
 ----------------------------------------------------------------------

 Structure from the checkpoint file:  "DMAEMA-9.chk"
 --------------
 DMAEMA geo opt
 --------------
 Charge =  0 Multiplicity = 1

 SCF Done:  E(RB3LYP) =  -519.254884487     A.U. after    1 cycles

  Exact polarizability: 130.458   6.486 112.567 -12.416  -4.943 102.508
 Approx polarizability: 162.761  11.922 170.361 -20.849 -10.441 144.452

                      1                      2                      3
                      A                      A                      A
 Frequencies --     34.2903                38.5566                71.9349
 Red. masses --      3.1528                 3.5677                 3.9034
 Frc consts  --      0.0022                 0.0031                 0.0119
 IR Inten    --      0.7082                 0.7330                 0.8898

                      4                      5                      6
                      A                      A                      A
 Frequencies --     97.1938               130.9205               190.5301
 Red. masses --      4.0945                 2.9379                 2.0312
 Frc consts  --      0.0228                 0.0297                 0.0434
 IR Inten    --      3.1005                 0.4470                 0.9492

                      7                      8                      9
                      A                      A                      A
 Frequencies --    196.7474               239.9451               250.1653
 Red. masses --      1.3623                 1.2451                 1.2333
 Frc consts  --      0.0311                 0.0422                 0.0455
 IR Inten    --      1.1591                 0.2231                 0.1901

                     10                     11                     12
                      A                      A                      A
 Frequencies --    275.7545               326.8185               374.7592
 Red. masses --      2.0362                 2.8113                 2.6045
 Frc consts  --      0.0912                 0.1769                 0.2155
 IR Inten    --      0.1828                 1.8424                 7.1181

                     13                     14                     15
                      A                      A                      A
 Frequencies --    385.3216               393.6302               401.4758
 Red. masses --      2.5025                 2.9825                 2.4074
 Frc consts  --      0.2189                 0.2723                 0.2286
 IR Inten    --      2.2428                12.8843                 0.7075

                     16                     17                     18
                      A                      A                      A
 Frequencies --    439.3471               483.9035               571.4121
 Red. masses --      2.1726                 4.0212                 2.6078
 Frc consts  --      0.2471                 0.5548                 0.5017
 IR Inten    --      0.3440                 9.4887                 4.2288

                     19                     20                     21
                      A                      A                      A
 Frequencies --    596.8208               663.9542               783.0880
 Red. masses --      3.5912                 1.3902                 2.9150
 Frc consts  --      0.7537                 0.3611                 1.0532
 IR Inten    --      3.6221                13.4353                17.3370

                     22                     23                     24
                      A                      A                      A
 Frequencies --    824.7319               841.5249               890.3243
 Red. masses --      2.5691                 4.5601                 2.5360
 Frc consts  --      1.0296                 1.9027                 1.1844
 IR Inten    --     17.0072                 7.0547                 3.3749

                     25                     26                     27
                      A                      A                      A
 Frequencies --    951.9720               969.1912               978.2919
 Red. masses --      1.8802                 2.2846                 1.3370
 Frc consts  --      1.0039                 1.2644                 0.7539
 IR Inten    --      1.0087                33.0272                33.9187

                     28                     29                     30
                      A                      A                      A
 Frequencies --   1028.8062              1040.2151              1065.6446
 Red. masses --      1.4328                 3.0438                 1.7111
 Frc consts  --      0.8935                 1.9405                 1.1448
 IR Inten    --      8.6192                26.5676                20.8237

                     31                     32                     33
                      A                      A                      A
 Frequencies --   1071.4206              1086.1686              1093.0457
 Red. masses --      1.4880                 2.0153                 1.7876
 Frc consts  --      1.0064                 1.4009                 1.2583
 IR Inten    --      0.0494                15.0673                 4.0617

                     34                     35                     36
                      A                      A                      A
 Frequencies --   1120.9670              1178.2154              1183.6903
 Red. masses --      1.3260                 1.5364                 3.9423
 Frc consts  --      0.9817                 1.2566                 3.2545
 IR Inten    --      6.3769                 2.8026               422.8791

                     37                     38                     39
                      A                      A                      A
 Frequencies --   1236.8893              1293.9788              1312.4538
 Red. masses --      2.2012                 1.7456                 3.1927
 Frc consts  --      1.9841                 1.7220                 3.2402
 IR Inten    --     13.5773                17.3654               154.0809

                     40                     41                     42
                      A                      A                      A
 Frequencies --   1316.3381              1319.9122              1401.3698
 Red. masses --      1.4577                 1.5336                 1.3517
 Frc consts  --      1.4881                 1.5742                 1.5640
 IR Inten    --      4.4568                27.6457                10.9436

                     43                     44                     45
                      A                      A                      A
 Frequencies --   1409.6690              1418.4654              1433.7998
 Red. masses --      1.1935                 1.3852                 1.2486
 Frc consts  --      1.3974                 1.6421                 1.5123
 IR Inten    --      9.2049                 3.1373                13.1652

                     46                     47                     48
                      A                      A                      A
 Frequencies --   1444.1509              1467.0544              1476.4385
 Red. masses --      1.1552                 1.1472                 1.0435
 Frc consts  --      1.4195                 1.4547                 1.3402
 IR Inten    --      1.5609                 0.6386                 7.6926

                     49                     50                     51
                      A                      A                      A
 Frequencies --   1484.8359              1485.8932              1493.3785
 Red. masses --      1.0866                 1.0522                 1.0577
 Frc consts  --      1.4115                 1.3688                 1.3898
 IR Inten    --      3.8865                 1.4479                19.7535

                     52                     53                     54
                      A                      A                      A
 Frequencies --   1496.2550              1498.8962              1510.6867
 Red. masses --      1.0995                 1.0826                 1.0538
 Frc consts  --      1.4503                 1.4330                 1.4170
 IR Inten    --     36.8921                15.3966                 6.1605

                     55                     56                     57
                      A                      A                      A
 Frequencies --   1513.0204              1694.7339              1770.0662
 Red. masses --      1.0541                 5.6349                10.5259
 Frc consts  --      1.4218                 9.5354                19.4306
 IR Inten    --     14.3364                41.1471               175.9936

                     58                     59                     60
                      A                      A                      A
 Frequencies --   2883.0437              2902.2501              2913.1143
 Red. masses --      1.0722                 1.0621                 1.0631
 Frc consts  --      5.2510                 5.2707                 5.3155
 IR Inten    --     68.8973                49.3102               234.1581

                     61                     62                     63
                      A                      A                      A
 Frequencies --   3034.9794              3055.3118              3061.8463
 Red. masses --      1.0350                 1.0697                 1.0843
 Frc consts  --      5.6168                 5.8831                 5.9891
 IR Inten    --     17.3498                22.8010                26.0679

                     64                     65                     66
                      A                      A                      A
 Frequencies --   3075.0403              3077.5946              3088.4924
 Red. masses --      1.0692                 1.0646                 1.0998
 Frc consts  --      5.9569                 5.9410                 6.1811
 IR Inten    --     48.8992                12.3347                12.4560

                     67                     68                     69
                      A                      A                      A
 Frequencies --   3099.1936              3111.1187              3125.8253
 Red. masses --      1.1033                 1.1032                 1.1013
 Frc consts  --      6.2439                 6.2911                 6.3400
 IR Inten    --     29.2585                21.5173                11.3768

                     70                     71                     72
                      A                      A                      A
 Frequencies --   3135.3684              3144.8508              3237.7115
 Red. masses --      1.1031                 1.0599                 1.1166
 Frc consts  --      6.3890                 6.1759                 6.8963
 IR Inten    --      8.4526                 8.6633                 2.2122

 - Thermochemistry -
 -------------------
 Temperature   298.150 Kelvin.  Pressure   1.00000 Atm.
 Atom     1 has atomic number  1 and mass   1.00783

 Molecular mass:   157.11028 amu.
 Principal axes and moments of inertia in atomic units:
                           1         2         3
     Eigenvalues --  1046.724832864.513362927.53108
           X            0.99991  -0.01212  -0.00492
           Y            0.01215   0.99991   0.00493
           Z            0.00486  -0.00499   0.99998
 This molecule is an asymmetric top.
 Rotational symmetry number  1.
 Warning -- assumption of classical behavior for rotation
           may cause significant error
 Rotational temperatures (Kelvin)      0.08275     0.03024     0.02959
 Rotational constants (GHZ):           1.72418     0.63003     0.61647
 Zero-point vibrational energy     590326.0 (Joules/Mol)
                                  141.09131 (Kcal/Mol)
 Warning -- explicit consideration of  19 degrees of freedom as
           vibrations may cause significant error
 Vibrational temperatures:     49.34    55.47   103.50   139.84   188.37
          (Kelvin)            274.13   283.08   345.23   359.93   396.75
                              470.22   539.19   554.39   566.35   577.63
                              632.12   696.23   822.13   858.69   955.28
                             1126.69  1186.61  1210.77  1280.98  1369.68
                             1394.45  1407.54  1480.22  1496.64  1533.22
                             1541.54  1562.75  1572.65  1612.82  1695.19
                             1703.07  1779.61  1861.75  1888.33  1893.92
                             1899.06  2016.26  2028.20  2040.86  2062.92
                             2077.81  2110.76  2124.27  2136.35  2137.87
                             2148.64  2152.78  2156.58  2173.54  2176.90
                             2438.34  2546.73  4148.06  4175.69  4191.32
                             4366.66  4395.91  4405.31  4424.30  4427.97
                             4443.65  4459.05  4476.21  4497.37  4511.10
                             4524.74  4658.34

 Zero-point correction=                           0.224843 (Hartree/Particle)
 Thermal correction to Energy=                    0.237612
 Thermal correction to Enthalpy=                  0.238557
 Thermal correction to Gibbs Free Energy=         0.185036
 Sum of electronic and zero-point Energies=           -519.030041
 Sum of electronic and thermal Energies=              -519.017272
 Sum of electronic and thermal Enthalpies=            -519.016328
 Sum of electronic and thermal Free Energies=         -519.069848

                     E (Thermal)             CV                S
                      KCal/Mol        Cal/Mol-Kelvin    Cal/Mol-Kelvin
 Total                  149.104             46.241            112.643
 Electronic               0.000              0.000              0.000
 Translational            0.889              2.981             41.065
 Rotational               0.889              2.981             30.552
 Vibrational            147.327             40.279             41.026
 Vibration     1          0.594              1.983              5.564
 Vibration     2          0.594              1.981              5.332
 Vibration     3          0.598              1.967              4.100
 Vibration     4          0.603              1.951              3.510
 Vibration     5          0.612              1.922              2.932
 Vibration     6          0.634              1.853              2.223
 Vibration     7          0.636              1.844              2.163
 Vibration     8          0.657              1.779              1.803
 Vibration     9          0.663              1.762              1.729
 Vibration    10          0.677              1.718              1.560
 Vibration    11          0.710              1.622              1.276
 Vibration    12          0.746              1.524              1.060
 Vibration    13          0.754              1.502              1.018
 Vibration    14          0.761              1.484              0.986
 Vibration    15          0.767              1.467              0.957
 Vibration    16          0.799              1.384              0.829
 Vibration    17          0.840              1.286              0.700
 Vibration    18          0.928              1.093              0.502
 Vibration    19          0.955              1.039              0.455

                           ! Non-Optimized Parameters !
 Normal termination of Gaussian 16 at Thu Apr 21 16:42:05 2022.
 Gaussian 16:  ES64L-G16RevA.03 25-Dec-2016

 ----------------------------------------------------------------------
 #P B3LYP/6-311++G(d,p) Geom=Allcheck SCF=Tight EmpiricalDispersion=GD3
 BJ Pop=CHELPG SP IOp(6/33=2)
 ----------------------------------------------------------------------

 Structure from the checkpoint file:  "DMAEMA-9.chk"
 --------------
 DMAEMA geo opt
 --------------
 Charge =  0 Multiplicity = 1

                         Standard orientation:
 ---------------------------------------------------------------------
 Center     Atomic      Atomic             Coordinates (Angstroms)
 Number     Number       Type             X           Y           Z
 ---------------------------------------------------------------------
      1          1           0       -2.930541   -1.936629    0.767165
      2          6           0       -3.153152   -0.885329    0.899521
      3          1           0       -4.025264   -0.614880    1.483411
      4          6           0       -2.368089    0.047792    0.356339
      5          6           0       -1.182935   -0.423689   -0.427554
      6          8           0       -0.855497   -1.579330   -0.569767
      7          8           0       -0.526867    0.619187   -0.985183
      8          6           0        0.727379    0.347340   -1.637557
      9          1           0        0.766817   -0.704367   -1.916065
     10          1           0        0.734768    0.958985   -2.540817
     11          6           0        1.879840    0.758415   -0.731323
     12          1           0        2.819159    0.651782   -1.310723
     13          1           0        1.765614    1.820413   -0.498342
     14          7           0        1.923540    0.025052    0.524037
     15          6           0        2.315408   -1.368907    0.354837
     16          1           0        3.326887   -1.470217   -0.081688
     17          1           0        2.312619   -1.863349    1.328161
     18          1           0        1.598370   -1.890596   -0.277742
     19          6           0        2.762507    0.697749    1.504787
     20          1           0        3.824606    0.750292    1.199445
     21          1           0        2.402839    1.716589    1.666043
     22          1           0        2.711666    0.164614    2.456620
     23          6           0       -2.603918    1.525992    0.497860
     24          1           0       -2.735213    1.999467   -0.478313
     25          1           0       -3.493016    1.714490    1.101746
     26          1           0       -1.747428    2.013003    0.970982
 ---------------------------------------------------------------------

 SCF Done:  E(RB3LYP) =  -519.254884487     A.U. after   14 cycles

 The electronic state is 1-A.
 Alpha  occ. eigenvalues --  -19.16616 -19.10604 -14.30985 -10.30031 -10.22936
 Alpha  occ. eigenvalues --  -10.20328 -10.19509 -10.18957 -10.18127 -10.17767
 Alpha  occ. eigenvalues --  -10.17009  -1.10667  -1.02052  -0.92912  -0.81848
 Alpha  occ. eigenvalues --   -0.76951  -0.70803  -0.69812  -0.68329  -0.62119
 Alpha  occ. eigenvalues --   -0.58050  -0.55431  -0.50608  -0.49395  -0.48036
 Alpha  occ. eigenvalues --   -0.47769  -0.46864  -0.44366  -0.43845  -0.42357
 Alpha  occ. eigenvalues --   -0.41148  -0.40170  -0.40006  -0.38985  -0.38242
 Alpha  occ. eigenvalues --   -0.37527  -0.36682  -0.36255  -0.34460  -0.30531
 Alpha  occ. eigenvalues --   -0.28151  -0.27222  -0.22378
 Alpha virt. eigenvalues --   -0.04982  -0.01070   0.00079   0.00549   0.01150
 Alpha virt. eigenvalues --    0.02237   0.02623   0.03175   0.03506   0.03656
 Alpha virt. eigenvalues --    0.04364   0.05168   0.05555   0.05836   0.06877

 Mulliken charges:
               1
     1  H    0.201336
     2  C   -0.652627
     3  H    0.130597
     4  C    0.940144
     5  C   -0.497503
     6  O   -0.263975
     7  O    0.015375
     8  C   -0.309508
     9  H    0.198504
    10  H    0.166366
    11  C   -0.276297
    12  H    0.109602
    13  H    0.172870
    14  N    0.079613
    15  C   -0.388419
    16  H    0.114366
    17  H    0.138624
    18  H    0.135530
    19  C   -0.299030
    20  H    0.118614
    21  H    0.125090
    22  H    0.131783
    23  C   -0.574490
    24  H    0.172703
    25  H    0.148627
    26  H    0.162104
 Sum of Mulliken charges =  -0.00000

 Dipole moment (field-independent basis, Debye):
    X=              0.6708    Y=              1.9036    Z=              0.1753  Tot=              2.0260
 Quadrupole moment (field-independent basis, Debye-Ang):
   XX=            -63.0616   YY=            -71.0649   ZZ=            -66.3691
   XY=             -0.9731   XZ=             -3.0293   YZ=             -1.6407

 ESP charges:
               1
     1  H    0.129464
     2  C   -0.300970
     3  H    0.142523
     4  C    0.004072
     5  C    0.579253
     6  O   -0.499568
     7  O   -0.302879
     8  C    0.033209
     9  H    0.092447
    10  H    0.045484
    11  C    0.130222
    12  H   -0.003307
    13  H    0.054531
    14  N   -0.303612
    15  C   -0.022442
    16  H    0.022151
    17  H    0.067615
    18  H    0.052360
    19  C   -0.188868
    20  H    0.059873
    21  H    0.090489
    22  H    0.100136
    23  C   -0.094011
    24  H    0.026974
    25  H    0.051360
    26  H    0.033494
 Sum of ESP charges =  -0.00000

 Normal termination of Gaussian 16 at Thu Apr 21 16:47:58 2022.
