 Gaussian 16, Revision A.03,

 ---------------------------------------------------------------------
 #n B3LYP/6-311++G(d,p) Opt freq EmpiricalDispersion=GD3BJ IOp(6/33=2)
 ---------------------------------------------------------------------

 --------------
 DMAEMA geo opt
 --------------
 Symbolic Z-matrix:
 Charge =  0 Multiplicity = 1

 SCF Done:  E(RB3LYP) =  -519.224737065     A.U. after   14 cycles
 SCF Done:  E(RB3LYP) =  -519.236272757     A.U. after   14 cycles
 SCF Done:  E(RB3LYP) =  -519.238761902     A.U. after   14 cycles
 SCF Done:  E(RB3LYP) =  -519.242553882     A.U. after   12 cycles
 SCF Done:  E(RB3LYP) =  -519.248097516     A.U. after   12 cycles
 SCF Done:  E(RB3LYP) =  -519.249965492     A.U. after   12 cycles
 SCF Done:  E(RB3LYP) =  -519.250642533     A.U. after   12 cycles
 SCF Done:  E(RB3LYP) =  -519.250837763     A.U. after   11 cycles
 SCF Done:  E(RB3LYP) =  -519.250943341     A.U. after   11 cycles
 SCF Done:  E(RB3LYP) =  -519.250967393     A.U. after   11 cycles
 SCF Done:  E(RB3LYP) =  -519.253499673     A.U. after   11 cycles
 SCF Done:  E(RB3LYP) =  -519.253529554     A.U. after   11 cycles
 SCF Done:  E(RB3LYP) =  -519.253541990     A.U. after   11 cycles
 SCF Done:  E(RB3LYP) =  -519.253545026     A.U. after   10 cycles
 SCF Done:  E(RB3LYP) =  -519.253545824     A.U. after   10 cycles
 SCF Done:  E(RB3LYP) =  -519.253545996     A.U. after    8 cycles
 SCF Done:  E(RB3LYP) =  -519.253546039     A.U. after    8 cycles
 SCF Done:  E(RB3LYP) =  -519.253546058     A.U. after    7 cycles
 Optimization completed.
    -- Stationary point found.
 Normal termination of Gaussian 16 at Thu Apr 21 16:42:19 2022.

 ----------------------------------------------------------------------
 #N Geom=AllCheck Guess=TCheck SCRF=Check Test GenChk RB3LYP/6-311++G(d
 ,p) Freq
 ----------------------------------------------------------------------

 Structure from the checkpoint file:  "DMAEMA-4.chk"
 --------------
 DMAEMA geo opt
 --------------
 Charge =  0 Multiplicity = 1

 SCF Done:  E(RB3LYP) =  -519.253546058     A.U. after    1 cycles

  Exact polarizability: 124.620  -3.793 119.493   6.210   5.304  98.952
 Approx polarizability: 148.195  -3.613 189.174   9.477  16.329 140.851

                      1                      2                      3
                      A                      A                      A
 Frequencies --     19.1405                32.6969                44.8132
 Red. masses --      3.2476                 3.2718                 2.9629
 Frc consts  --      0.0007                 0.0021                 0.0035
 IR Inten    --      0.1495                 0.3889                 0.5935

                      4                      5                      6
                      A                      A                      A
 Frequencies --     72.0755               149.0755               166.1702
 Red. masses --      5.8108                 2.9180                 1.1571
 Frc consts  --      0.0178                 0.0382                 0.0188
 IR Inten    --      2.9112                 0.8318                 0.3783

                      7                      8                      9
                      A                      A                      A
 Frequencies --    175.8479               233.3618               251.5921
 Red. masses --      3.0055                 1.5377                 1.1362
 Frc consts  --      0.0548                 0.0493                 0.0424
 IR Inten    --      1.6120                 0.9665                 0.3645

                     10                     11                     12
                      A                      A                      A
 Frequencies --    277.0175               324.0743               359.3955
 Red. masses --      1.9289                 2.7957                 2.6169
 Frc consts  --      0.0872                 0.1730                 0.1991
 IR Inten    --      3.0943                 6.4680                 5.2239

                     13                     14                     15
                      A                      A                      A
 Frequencies --    376.5039               381.3463               401.0095
 Red. masses --      2.2660                 3.1598                 2.4190
 Frc consts  --      0.1893                 0.2707                 0.2292
 IR Inten    --     13.8882                 0.5214                 2.6897

                     16                     17                     18
                      A                      A                      A
 Frequencies --    438.5423               495.6092               567.4376
 Red. masses --      2.1147                 3.4645                 3.0616
 Frc consts  --      0.2396                 0.5014                 0.5808
 IR Inten    --      0.3506                 1.1905                 3.8968

                     19                     20                     21
                      A                      A                      A
 Frequencies --    622.9708               654.9927               783.6430
 Red. masses --      3.2731                 1.3409                 2.6244
 Frc consts  --      0.7484                 0.3389                 0.9496
 IR Inten    --      2.2034                11.3686                13.3657

                     22                     23                     24
                      A                      A                      A
 Frequencies --    831.7880               848.7919               878.9443
 Red. masses --      3.0377                 4.4501                 2.6356
 Frc consts  --      1.2383                 1.8890                 1.1996
 IR Inten    --     16.0195                14.3430                 3.8114

                     25                     26                     27
                      A                      A                      A
 Frequencies --    954.5141               962.8590               970.6500
 Red. masses --      2.0014                 2.2416                 1.3349
 Frc consts  --      1.0744                 1.2245                 0.7410
 IR Inten    --      4.2925                21.3190                34.5715

                     28                     29                     30
                      A                      A                      A
 Frequencies --   1016.2947              1048.1202              1064.0109
 Red. masses --      1.5432                 2.4004                 1.6309
 Frc consts  --      0.9391                 1.5537                 1.0879
 IR Inten    --      5.4517                34.2739                15.5771

                     31                     32                     33
                      A                      A                      A
 Frequencies --   1071.0361              1089.6536              1097.0805
 Red. masses --      1.4888                 2.0314                 1.7327
 Frc consts  --      1.0062                 1.4211                 1.2287
 IR Inten    --      0.0767                11.7598                 8.2639

                     34                     35                     36
                      A                      A                      A
 Frequencies --   1119.8068              1175.7829              1184.2884
 Red. masses --      1.3710                 1.5755                 3.7257
 Frc consts  --      1.0129                 1.2833                 3.0788
 IR Inten    --      9.9112                36.2744               348.4737

                     37                     38                     39
                      A                      A                      A
 Frequencies --   1239.9009              1294.7732              1312.4494
 Red. masses --      2.2411                 1.7458                 1.4599
 Frc consts  --      2.0300                 1.7244                 1.4816
 IR Inten    --     30.7408                 9.5879                21.6035

                     40                     41                     42
                      A                      A                      A
 Frequencies --   1327.8919              1339.9751              1406.0863
 Red. masses --      1.4317                 3.2035                 1.3115
 Frc consts  --      1.4874                 3.3890                 1.5277
 IR Inten    --     20.5098               147.2470                 6.9125

                     43                     44                     45
                      A                      A                      A
 Frequencies --   1415.3576              1423.0382              1437.8299
 Red. masses --      1.3117                 1.3865                 1.2257
 Frc consts  --      1.5481                 1.6542                 1.4930
 IR Inten    --     11.4207                 0.5494                11.5451

                     46                     47                     48
                      A                      A                      A
 Frequencies --   1442.7544              1469.1646              1472.7208
 Red. masses --      1.1677                 1.1807                 1.0430
 Frc consts  --      1.4321                 1.5015                 1.3328
 IR Inten    --      1.4996                 1.1611                 8.1368

                     49                     50                     51
                      A                      A                      A
 Frequencies --   1482.3347              1486.7322              1491.4972
 Red. masses --      1.0688                 1.0525                 1.0580
 Frc consts  --      1.3837                 1.3707                 1.3868
 IR Inten    --      6.5225                12.2424                19.5677

                     52                     53                     54
                      A                      A                      A
 Frequencies --   1494.7607              1504.6535              1506.3907
 Red. masses --      1.0717                 1.0963                 1.0635
 Frc consts  --      1.4107                 1.4623                 1.4219
 IR Inten    --     21.5666                18.3667                 0.4561

                     55                     56                     57
                      A                      A                      A
 Frequencies --   1512.6081              1693.9505              1757.0819
 Red. masses --      1.0552                 5.4213                10.8191
 Frc consts  --      1.4224                 9.1655                19.6801
 IR Inten    --     12.6706                31.6895               236.9111

                     58                     59                     60
                      A                      A                      A
 Frequencies --   2871.6952              2896.8130              2908.8221
 Red. masses --      1.0729                 1.0625                 1.0633
 Frc consts  --      5.2128                 5.2532                 5.3009
 IR Inten    --     71.9320                57.0726               207.7145

                     61                     62                     63
                      A                      A                      A
 Frequencies --   3036.1697              3056.4293              3066.2331
 Red. masses --      1.0354                 1.0678                 1.0665
 Frc consts  --      5.6236                 5.8772                 5.9075
 IR Inten    --     16.5028                28.9296                36.3295

                     64                     65                     66
                      A                      A                      A
 Frequencies --   3073.2886              3088.2363              3092.6128
 Red. masses --      1.0620                 1.0995                 1.0883
 Frc consts  --      5.9101                 6.1782                 6.1327
 IR Inten    --     19.3645                11.0902                 3.6572

                     67                     68                     69
                      A                      A                      A
 Frequencies --   3100.3535              3106.6313              3116.4757
 Red. masses --      1.1028                 1.1028                 1.1031
 Frc consts  --      6.2456                 6.2708                 6.3124
 IR Inten    --     19.9455                35.1129                15.7374

                     70                     71                     72
                      A                      A                      A
 Frequencies --   3129.2040              3145.6352              3242.6488
 Red. masses --      1.1037                 1.0617                 1.1144
 Frc consts  --      6.3676                 6.1899                 6.9037
 IR Inten    --     20.9636                11.0375                 3.3125

 - Thermochemistry -
 -------------------
 Temperature   298.150 Kelvin.  Pressure   1.00000 Atm.
 Atom     1 has atomic number  1 and mass   1.00783

 Molecular mass:   157.11028 amu.
 Principal axes and moments of inertia in atomic units:
                           1         2         3
     Eigenvalues --   957.750613157.596293280.27896
           X            0.99997  -0.00481   0.00531
           Y            0.00473   0.99986   0.01582
           Z           -0.00538  -0.01579   0.99986
 This molecule is an asymmetric top.
 Rotational symmetry number  1.
 Warning -- assumption of classical behavior for rotation
           may cause significant error
 Rotational temperatures (Kelvin)      0.09043     0.02743     0.02640
 Rotational constants (GHZ):           1.88435     0.57156     0.55018
 Zero-point vibrational energy     589664.1 (Joules/Mol)
                                  140.93310 (Kcal/Mol)
 Warning -- explicit consideration of  18 degrees of freedom as
           vibrations may cause significant error
 Vibrational temperatures:     27.54    47.04    64.48   103.70   214.49
          (Kelvin)            239.08   253.01   335.76   361.98   398.57
                              466.27   517.09   541.71   548.67   576.96
                              630.96   713.07   816.42   896.32   942.39
                             1127.49  1196.76  1221.22  1264.60  1373.33
                             1385.34  1396.55  1462.22  1508.01  1530.87
                             1540.98  1567.77  1578.45  1611.15  1691.69
                             1703.93  1783.94  1862.89  1888.32  1910.54
                             1927.93  2023.04  2036.38  2047.43  2068.72
                             2075.80  2113.80  2118.92  2132.75  2139.08
                             2145.93  2150.63  2164.86  2167.36  2176.31
                             2437.22  2528.05  4131.73  4167.87  4185.15
                             4368.37  4397.52  4411.63  4421.78  4443.28
                             4449.58  4460.72  4469.75  4483.91  4502.23
                             4525.87  4665.45

 Zero-point correction=                           0.224591 (Hartree/Particle)
 Thermal correction to Energy=                    0.237583
 Thermal correction to Enthalpy=                  0.238528
 Thermal correction to Gibbs Free Energy=         0.183353
 Sum of electronic and zero-point Energies=           -519.028955
 Sum of electronic and thermal Energies=              -519.015963
 Sum of electronic and thermal Enthalpies=            -519.015018
 Sum of electronic and thermal Free Energies=         -519.070193

                     E (Thermal)             CV                S
                      KCal/Mol        Cal/Mol-Kelvin    Cal/Mol-Kelvin
 Total                  149.086             46.340            116.125
 Electronic               0.000              0.000              0.000
 Translational            0.889              2.981             41.065
 Rotational               0.889              2.981             30.673
 Vibrational            147.308             40.378             44.386
 Vibration     1          0.593              1.986              6.721
 Vibration     2          0.594              1.983              5.659
 Vibration     3          0.595              1.979              5.034
 Vibration     4          0.598              1.967              4.096
 Vibration     5          0.618              1.904              2.684
 Vibration     6          0.624              1.884              2.478
 Vibration     7          0.628              1.872              2.372
 Vibration     8          0.654              1.790              1.853
 Vibration     9          0.664              1.760              1.719
 Vibration    10          0.678              1.716              1.552
 Vibration    11          0.709              1.627              1.289
 Vibration    12          0.734              1.556              1.125
 Vibration    13          0.747              1.520              1.053
 Vibration    14          0.751              1.510              1.034
 Vibration    15          0.767              1.468              0.959
 Vibration    16          0.799              1.386              0.831
 Vibration    17          0.851              1.260              0.669
 Vibration    18          0.923              1.102              0.509

 Optimization completed.
    -- Stationary point found.
 Normal termination of Gaussian 16 at Thu Apr 21 16:44:18 2022.
 Gaussian 16:  ES64L-G16RevA.03 25-Dec-2016

 ----------------------------------------------------------------------
 #P B3LYP/6-311++G(d,p) Geom=Allcheck SCF=Tight EmpiricalDispersion=GD3
 BJ Pop=CHELPG SP IOp(6/33=2)
 ----------------------------------------------------------------------

 Structure from the checkpoint file:  "DMAEMA-4.chk"
 --------------
 DMAEMA geo opt
 --------------
 Charge =  0 Multiplicity = 1

                         Standard orientation:
 ---------------------------------------------------------------------
 Center     Atomic      Atomic             Coordinates (Angstroms)
 Number     Number       Type             X           Y           Z
 ---------------------------------------------------------------------
      1          1           0        1.460108   -2.121095   -0.871485
      2          6           0        2.315812   -1.776821   -0.306946
      3          1           0        3.091676   -2.497357   -0.072975
      4          6           0        2.414877   -0.508427    0.099296
      5          6           0        1.339164    0.481877   -0.202281
      6          8           0        1.328545    1.608568    0.245452
      7          8           0        0.387870    0.004261   -1.028186
      8          6           0       -0.734536    0.866254   -1.295369
      9          1           0       -0.375046    1.867574   -1.539276
     10          1           0       -1.199167    0.430946   -2.178757
     11          6           0       -1.705321    0.959146   -0.124082
     12          1           0       -1.225721    1.516171    0.681645
     13          1           0       -2.566586    1.565923   -0.473076
     14          7           0       -2.127458   -0.328718    0.405916
     15          6           0       -2.863231   -0.165504    1.650501
     16          1           0       -3.814584    0.384149    1.518918
     17          1           0       -3.094139   -1.146105    2.072842
     18          1           0       -2.251791    0.380870    2.371894
     19          6           0       -2.872592   -1.127942   -0.553637
     20          1           0       -3.791071   -0.622344   -0.909064
     21          1           0       -2.252563   -1.364029   -1.419819
     22          1           0       -3.163598   -2.072646   -0.089992
     23          6           0        3.566877    0.028907    0.900503
     24          1           0        3.220327    0.425941    1.857918
     25          1           0        4.305100   -0.752468    1.085726
     26          1           0        4.051636    0.857934    0.378051
 ---------------------------------------------------------------------

 SCF Done:  E(RB3LYP) =  -519.253546058     A.U. after   13 cycles

 The electronic state is 1-A.
 Alpha  occ. eigenvalues --  -19.16560 -19.11085 -14.31050 -10.30140 -10.23141
 Alpha  occ. eigenvalues --  -10.19940 -10.19676 -10.19041 -10.18931 -10.18027
 Alpha  occ. eigenvalues --  -10.16823  -1.10935  -1.02203  -0.93051  -0.81993
 Alpha  occ. eigenvalues --   -0.76760  -0.71281  -0.70009  -0.68053  -0.62447
 Alpha  occ. eigenvalues --   -0.59082  -0.54239  -0.50890  -0.49281  -0.48365
 Alpha  occ. eigenvalues --   -0.48088  -0.46906  -0.44813  -0.44123  -0.43125
 Alpha  occ. eigenvalues --   -0.41747  -0.39921  -0.39508  -0.38953  -0.37792
 Alpha  occ. eigenvalues --   -0.37511  -0.36835  -0.36488  -0.35099  -0.30672
 Alpha  occ. eigenvalues --   -0.28199  -0.27499  -0.22349
 Alpha virt. eigenvalues --   -0.05170  -0.01066   0.00056   0.00633   0.01007
 Alpha virt. eigenvalues --    0.02208   0.02439   0.03379   0.03474   0.03616
 Alpha virt. eigenvalues --    0.04401   0.04786   0.05370   0.05783   0.06631

 Mulliken charges:
               1
     1  H    0.159249
     2  C   -0.564889
     3  H    0.145632
     4  C    0.665188
     5  C   -0.251557
     6  O   -0.243418
     7  O    0.034708
     8  C   -0.476734
     9  H    0.195634
    10  H    0.166464
    11  C   -0.222192
    12  H    0.192355
    13  H    0.099148
    14  N    0.134406
    15  C   -0.279775
    16  H    0.116292
    17  H    0.131477
    18  H    0.141101
    19  C   -0.377001
    20  H    0.121241
    21  H    0.142753
    22  H    0.135644
    23  C   -0.644556
    24  H    0.174275
    25  H    0.133272
    26  H    0.171284
 Sum of Mulliken charges =  -0.00000

 Dipole moment (field-independent basis, Debye):
    X=             -1.0290    Y=             -1.4004    Z=             -0.5861  Tot=              1.8339
 Quadrupole moment (field-independent basis, Debye-Ang):
   XX=            -63.0192   YY=            -70.5416   ZZ=            -67.3506
   XY=             -3.8480   XZ=              1.1308   YZ=             -1.5042

 ESP charges:
               1
     1  H    0.151064
     2  C   -0.368065
     3  H    0.167383
     4  C   -0.037458
     5  C    0.743511
     6  O   -0.537085
     7  O   -0.418999
     8  C    0.078375
     9  H    0.041216
    10  H    0.083666
    11  C    0.105917
    12  H    0.079713
    13  H    0.000591
    14  N   -0.347129
    15  C   -0.109873
    16  H    0.048811
    17  H    0.085619
    18  H    0.071374
    19  C   -0.091517
    20  H    0.041495
    21  H    0.077895
    22  H    0.084475
    23  C   -0.028213
    24  H    0.025823
    25  H    0.032144
    26  H    0.019268
 Sum of ESP charges =   0.00000

 Normal termination of Gaussian 16 at Thu Apr 21 16:49:33 2022.
