 Gaussian 16, Revision A.03,

 ---------------------------------------------------------------------
 #n B3LYP/6-311++G(d,p) Opt freq EmpiricalDispersion=GD3BJ IOp(6/33=2)
 ---------------------------------------------------------------------

 --------------
 DMAEMA geo opt
 --------------
 Symbolic Z-matrix:
 Charge =  0 Multiplicity = 1

 SCF Done:  E(RB3LYP) =  -518.777722666     A.U. after   19 cycles
 SCF Done:  E(RB3LYP) =  -518.912681427     A.U. after   14 cycles
 SCF Done:  E(RB3LYP) =  -519.048864484     A.U. after   14 cycles
 SCF Done:  E(RB3LYP) =  -519.073935551     A.U. after   15 cycles
 SCF Done:  E(RB3LYP) =  -519.141694961     A.U. after   14 cycles
 SCF Done:  E(RB3LYP) =  -519.187445509     A.U. after   14 cycles
 SCF Done:  E(RB3LYP) =  -519.211586930     A.U. after   12 cycles
 SCF Done:  E(RB3LYP) =  -519.228609287     A.U. after   12 cycles
 SCF Done:  E(RB3LYP) =  -519.235250946     A.U. after   12 cycles
 SCF Done:  E(RB3LYP) =  -519.238328259     A.U. after   12 cycles
 SCF Done:  E(RB3LYP) =  -519.253613157     A.U. after   10 cycles
 SCF Done:  E(RB3LYP) =  -519.253624324     A.U. after    9 cycles
 SCF Done:  E(RB3LYP) =  -519.253631378     A.U. after    9 cycles
 SCF Done:  E(RB3LYP) =  -519.253633319     A.U. after    9 cycles
 SCF Done:  E(RB3LYP) =  -519.253635093     A.U. after    9 cycles
 SCF Done:  E(RB3LYP) =  -519.253635795     A.U. after    8 cycles
 SCF Done:  E(RB3LYP) =  -519.253636365     A.U. after    8 cycles
 SCF Done:  E(RB3LYP) =  -519.253636442     A.U. after    7 cycles
 Optimization completed.
    -- Stationary point found.
 Normal termination of Gaussian 16 at Thu Apr 21 16:45:33 2022.

 ----------------------------------------------------------------------
 #N Geom=AllCheck Guess=TCheck SCRF=Check Test GenChk RB3LYP/6-311++G(d
 ,p) Freq
 ----------------------------------------------------------------------

 Structure from the checkpoint file:  "DMAEMA-7.chk"
 --------------
 DMAEMA geo opt
 --------------
 Charge =  0 Multiplicity = 1

 SCF Done:  E(RB3LYP) =  -519.253636442     A.U. after    1 cycles

  Exact polarizability: 138.126   1.141 108.294 -11.504   3.915  98.039
 Approx polarizability: 169.889  -2.300 155.215 -23.628  11.896 149.095

                      1                      2                      3
                      A                      A                      A
 Frequencies --     33.7864                46.1485                51.2603
 Red. masses --      3.0103                 2.9130                 3.6065
 Frc consts  --      0.0020                 0.0037                 0.0056
 IR Inten    --      0.3419                 0.6285                 0.5070

                      4                      5                      6
                      A                      A                      A
 Frequencies --     68.0232               137.0711               195.2835
 Red. masses --      5.7552                 2.9183                 1.0410
 Frc consts  --      0.0157                 0.0323                 0.0234
 IR Inten    --      3.1807                 0.9083                 0.2193

                      7                      8                      9
                      A                      A                      A
 Frequencies --    199.7745               241.1946               263.6836
 Red. masses --      3.2812                 1.8986                 1.6047
 Frc consts  --      0.0772                 0.0651                 0.0657
 IR Inten    --      1.1758                 0.8779                 1.6467

                     10                     11                     12
                      A                      A                      A
 Frequencies --    265.3642               300.2930               363.6719
 Red. masses --      1.1084                 2.3814                 2.7292
 Frc consts  --      0.0460                 0.1265                 0.2127
 IR Inten    --      2.2311                 2.9144                16.7381

                     13                     14                     15
                      A                      A                      A
 Frequencies --    384.3647               387.3854               406.3453
 Red. masses --      2.5167                 2.9085                 2.9301
 Frc consts  --      0.2191                 0.2572                 0.2851
 IR Inten    --      1.3026                 2.6850                 1.9414

                     16                     17                     18
                      A                      A                      A
 Frequencies --    437.9801               503.2802               535.5883
 Red. masses --      2.1264                 4.0718                 2.2661
 Frc consts  --      0.2403                 0.6076                 0.3830
 IR Inten    --      0.3586                 5.8933                 4.6489

                     19                     20                     21
                      A                      A                      A
 Frequencies --    599.8246               667.7269               777.4134
 Red. masses --      3.4277                 1.3606                 2.9726
 Frc consts  --      0.7266                 0.3574                 1.0585
 IR Inten    --      2.1581                10.4296                 7.3481

                     22                     23                     24
                      A                      A                      A
 Frequencies --    831.5684               837.4748               898.4485
 Red. masses --      2.8748                 4.4477                 2.9326
 Frc consts  --      1.1713                 1.8379                 1.3947
 IR Inten    --     12.0396                17.5190                 7.7790

                     25                     26                     27
                      A                      A                      A
 Frequencies --    950.4460               977.2768               983.6040
 Red. masses --      1.9473                 2.2228                 1.3356
 Frc consts  --      1.0364                 1.2508                 0.7613
 IR Inten    --      3.9597                18.3694                36.5713

                     28                     29                     30
                      A                      A                      A
 Frequencies --   1027.3971              1034.9852              1062.7073
 Red. masses --      1.5980                 2.4914                 1.6616
 Frc consts  --      0.9938                 1.5724                 1.1056
 IR Inten    --      4.9479                55.0222                19.7669

                     31                     32                     33
                      A                      A                      A
 Frequencies --   1071.8089              1078.6298              1099.9041
 Red. masses --      1.4877                 1.7604                 2.2661
 Frc consts  --      1.0069                 1.2067                 1.6152
 IR Inten    --      0.1400                 9.7117                12.6120

                     34                     35                     36
                      A                      A                      A
 Frequencies --   1120.0404              1179.7418              1184.8642
 Red. masses --      1.3056                 1.9873                 2.6342
 Frc consts  --      0.9650                 1.6297                 2.1789
 IR Inten    --      6.1834               195.6182               211.5428

                     37                     38                     39
                      A                      A                      A
 Frequencies --   1216.6463              1293.2127              1305.6724
 Red. masses --      2.0996                 1.6724                 1.8301
 Frc consts  --      1.8311                 1.6479                 1.8382
 IR Inten    --     17.1840                29.5325                 1.7443

                     40                     41                     42
                      A                      A                      A
 Frequencies --   1313.4969              1344.9963              1401.5928
 Red. masses --      3.3661                 1.2094                 1.3134
 Frc consts  --      3.4216                 1.2891                 1.5201
 IR Inten    --    192.3216                15.5655                 4.3386

                     43                     44                     45
                      A                      A                      A
 Frequencies --   1410.7313              1417.2258              1434.4726
 Red. masses --      1.1891                 1.4130                 1.2498
 Frc consts  --      1.3943                 1.6722                 1.5152
 IR Inten    --      6.9915                 4.4613                12.6733

                     46                     47                     48
                      A                      A                      A
 Frequencies --   1444.5573              1469.5212              1476.8840
 Red. masses --      1.1574                 1.1494                 1.0602
 Frc consts  --      1.4229                 1.4625                 1.3624
 IR Inten    --      0.4400                 1.0373                14.4248

                     49                     50                     51
                      A                      A                      A
 Frequencies --   1478.0143              1485.0060              1488.4625
 Red. masses --      1.0823                 1.0432                 1.1116
 Frc consts  --      1.3930                 1.3555                 1.4510
 IR Inten    --      5.5603                 8.1219                 5.6171

                     52                     53                     54
                      A                      A                      A
 Frequencies --   1493.6177              1500.1091              1502.5281
 Red. masses --      1.0599                 1.0655                 1.0490
 Frc consts  --      1.3932                 1.4127                 1.3953
 IR Inten    --     39.3415                19.2120                 6.2301

                     55                     56                     57
                      A                      A                      A
 Frequencies --   1514.8794              1693.6882              1768.8888
 Red. masses --      1.0548                 5.6240                10.5848
 Frc consts  --      1.4261                 9.5052                19.5134
 IR Inten    --     17.3728                40.6891               174.7154

                     58                     59                     60
                      A                      A                      A
 Frequencies --   2903.9710              2913.1620              2933.4473
 Red. masses --      1.0623                 1.0631                 1.0716
 Frc consts  --      5.2779                 5.3157                 5.4332
 IR Inten    --     51.6820               107.8794                80.8300

                     61                     62                     63
                      A                      A                      A
 Frequencies --   3035.3379              3052.9896              3056.7178
 Red. masses --      1.0352                 1.0833                 1.0707
 Frc consts  --      5.6196                 5.9489                 5.8941
 IR Inten    --     16.3763                 7.8550                42.2953

                     64                     65                     66
                      A                      A                      A
 Frequencies --   3070.7616              3081.5729              3088.2707
 Red. masses --      1.0727                 1.0595                 1.0997
 Frc consts  --      5.9597                 5.9281                 6.1797
 IR Inten    --     34.5849                36.3833                12.6152

                     67                     68                     69
                      A                      A                      A
 Frequencies --   3099.1283              3112.1162              3131.5860
 Red. masses --      1.1035                 1.1030                 1.0984
 Frc consts  --      6.2445                 6.2942                 6.3465
 IR Inten    --     31.2486                20.9902                16.1366

                     70                     71                     72
                      A                      A                      A
 Frequencies --   3137.1513              3145.2118              3238.0646
 Red. masses --      1.1097                 1.0598                 1.1167
 Frc consts  --      6.4348                 6.1772                 6.8988
 IR Inten    --      7.0002                 8.0952                 1.8463

 - Thermochemistry -
 -------------------
 Temperature   298.150 Kelvin.  Pressure   1.00000 Atm.
 Atom     1 has atomic number  1 and mass   1.00783

 Molecular mass:   157.11028 amu.
 Principal axes and moments of inertia in atomic units:
                           1         2         3
     Eigenvalues --   872.499473197.321293592.46836
           X            0.99989   0.01326   0.00697
           Y           -0.01322   0.99989  -0.00603
           Z           -0.00704   0.00594   0.99996
 This molecule is an asymmetric top.
 Rotational symmetry number  1.
 Warning -- assumption of classical behavior for rotation
           may cause significant error
 Rotational temperatures (Kelvin)      0.09927     0.02709     0.02411
 Rotational constants (GHZ):           2.06847     0.56445     0.50237
 Zero-point vibrational energy     590106.2 (Joules/Mol)
                                  141.03877 (Kcal/Mol)
 Warning -- explicit consideration of  19 degrees of freedom as
           vibrations may cause significant error
 Vibrational temperatures:     48.61    66.40    73.75    97.87   197.21
          (Kelvin)            280.97   287.43   347.03   379.38   381.80
                              432.05   523.24   553.02   557.36   584.64
                              630.16   724.11   770.59   863.01   960.71
                             1118.52  1196.44  1204.94  1292.67  1367.48
                             1406.08  1415.19  1478.20  1489.11  1529.00
                             1542.09  1551.91  1582.52  1611.49  1697.39
                             1704.76  1750.48  1860.64  1878.57  1889.83
                             1935.15  2016.58  2029.73  2039.07  2063.89
                             2078.40  2114.31  2124.91  2126.53  2136.59
                             2141.57  2148.98  2158.32  2161.80  2179.57
                             2436.84  2545.04  4178.17  4191.39  4220.58
                             4367.17  4392.57  4397.94  4418.14  4433.70
                             4443.33  4458.95  4477.64  4505.65  4513.66
                             4525.26  4658.85

 Zero-point correction=                           0.224760 (Hartree/Particle)
 Thermal correction to Energy=                    0.237636
 Thermal correction to Enthalpy=                  0.238580
 Thermal correction to Gibbs Free Energy=         0.184495
 Sum of electronic and zero-point Energies=           -519.028877
 Sum of electronic and thermal Energies=              -519.016001
 Sum of electronic and thermal Enthalpies=            -519.015057
 Sum of electronic and thermal Free Energies=         -519.069142

                     E (Thermal)             CV                S
                      KCal/Mol        Cal/Mol-Kelvin    Cal/Mol-Kelvin
 Total                  149.119             46.346            113.831
 Electronic               0.000              0.000              0.000
 Translational            0.889              2.981             41.065
 Rotational               0.889              2.981             30.684
 Vibrational            147.341             40.385             42.083
 Vibration     1          0.594              1.983              5.594
 Vibration     2          0.595              1.979              4.976
 Vibration     3          0.596              1.977              4.768
 Vibration     4          0.598              1.969              4.210
 Vibration     5          0.614              1.916              2.844
 Vibration     6          0.636              1.846              2.177
 Vibration     7          0.638              1.840              2.135
 Vibration     8          0.658              1.777              1.794
 Vibration     9          0.670              1.739              1.637
 Vibration    10          0.671              1.737              1.626
 Vibration    11          0.693              1.673              1.415
 Vibration    12          0.737              1.547              1.106
 Vibration    13          0.753              1.504              1.022
 Vibration    14          0.756              1.497              1.010
 Vibration    15          0.771              1.456              0.940
 Vibration    16          0.798              1.387              0.833
 Vibration    17          0.859              1.243              0.650
 Vibration    18          0.891              1.171              0.575
 Vibration    19          0.958              1.032              0.450

                           ! Non-Optimized Parameters !
 Normal termination of Gaussian 16 at Thu Apr 21 16:47:36 2022.
 Gaussian 16:  ES64L-G16RevA.03 25-Dec-2016

 ----------------------------------------------------------------------
 #P B3LYP/6-311++G(d,p) Geom=Allcheck SCF=Tight EmpiricalDispersion=GD3
 BJ Pop=CHELPG SP IOp(6/33=2)
 ----------------------------------------------------------------------

 Structure from the checkpoint file:  "DMAEMA-7.chk"
 --------------
 DMAEMA geo opt
 --------------
 Charge =  0 Multiplicity = 1

                         Standard orientation:
 ---------------------------------------------------------------------
 Center     Atomic      Atomic             Coordinates (Angstroms)
 Number     Number       Type             X           Y           Z
 ---------------------------------------------------------------------
      1          1           0       -3.586806    1.036676    1.351136
      2          6           0       -3.558535    0.041882    0.924469
      3          1           0       -4.389280   -0.625242    1.122818
      4          6           0       -2.524403   -0.345371    0.174048
      5          6           0       -1.425040    0.647633   -0.042727
      6          8           0       -1.383699    1.762820    0.424164
      7          8           0       -0.461048    0.139313   -0.843384
      8          6           0        0.684235    0.985454   -1.106272
      9          1           0        1.081499    0.630717   -2.056568
     10          1           0        0.336234    2.013690   -1.201412
     11          6           0        1.749542    0.895398   -0.021354
     12          1           0        2.391913    1.773479   -0.137006
     13          1           0        1.266769    0.984446    0.968205
     14          7           0        2.602184   -0.286042   -0.116984
     15          6           0        3.776672   -0.145919    0.733946
     16          1           0        3.522452   -0.074685    1.807946
     17          1           0        4.431858   -1.009162    0.598118
     18          1           0        4.333724    0.751497    0.455119
     19          6           0        1.893791   -1.526830    0.179028
     20          1           0        1.475192   -1.538458    1.203194
     21          1           0        1.074443   -1.674649   -0.522317
     22          1           0        2.585498   -2.366543    0.083670
     23          6           0       -2.407420   -1.708339   -0.450815
     24          1           0       -1.513295   -2.227501   -0.095920
     25          1           0       -3.281316   -2.315024   -0.208558
     26          1           0       -2.319236   -1.637464   -1.537716
 ---------------------------------------------------------------------

 SCF Done:  E(RB3LYP) =  -519.253636442     A.U. after   14 cycles

 The electronic state is 1-A.
 Alpha  occ. eigenvalues --  -19.17129 -19.11165 -14.31134 -10.30468 -10.23060
 Alpha  occ. eigenvalues --  -10.20173 -10.20021 -10.18989 -10.18620 -10.18277
 Alpha  occ. eigenvalues --  -10.17519  -1.11194  -1.02464  -0.92954  -0.82326
 Alpha  occ. eigenvalues --   -0.76969  -0.71052  -0.70309  -0.68604  -0.62159
 Alpha  occ. eigenvalues --   -0.59051  -0.55005  -0.51017  -0.49453  -0.48534
 Alpha  occ. eigenvalues --   -0.47813  -0.46688  -0.44973  -0.44290  -0.42991
 Alpha  occ. eigenvalues --   -0.41862  -0.40041  -0.39845  -0.39364  -0.38302
 Alpha  occ. eigenvalues --   -0.37945  -0.37130  -0.36969  -0.34687  -0.31015
 Alpha  occ. eigenvalues --   -0.28553  -0.27752  -0.22487
 Alpha virt. eigenvalues --   -0.05519  -0.01053  -0.00102   0.00797   0.01145
 Alpha virt. eigenvalues --    0.01986   0.02462   0.02878   0.03836   0.04018
 Alpha virt. eigenvalues --    0.04264   0.04873   0.05208   0.06108   0.06869

 Mulliken charges:
               1
     1  H    0.202947
     2  C   -0.632104
     3  H    0.131495
     4  C    0.951079
     5  C   -0.516131
     6  O   -0.258468
     7  O    0.009008
     8  C   -0.528617
     9  H    0.182699
    10  H    0.206855
    11  C   -0.099856
    12  H    0.148658
    13  H    0.150741
    14  N    0.058117
    15  C   -0.275734
    16  H    0.123261
    17  H    0.130542
    18  H    0.123177
    19  C   -0.442858
    20  H    0.117901
    21  H    0.179763
    22  H    0.142594
    23  C   -0.579998
    24  H    0.149710
    25  H    0.151512
    26  H    0.173709
 Sum of Mulliken charges =  -0.00000

 Dipole moment (field-independent basis, Debye):
    X=              0.3280    Y=             -1.6116    Z=             -0.2031  Tot=              1.6571
 Quadrupole moment (field-independent basis, Debye-Ang):
   XX=            -63.3254   YY=            -70.5698   ZZ=            -69.9705
   XY=              5.6097   XZ=              1.0350   YZ=             -2.6009

 ESP charges:
               1
     1  H    0.140056
     2  C   -0.300814
     3  H    0.144807
     4  C   -0.062127
     5  C    0.675319
     6  O   -0.556483
     7  O   -0.282702
     8  C    0.003587
     9  H    0.065183
    10  H    0.070542
    11  C    0.161908
    12  H    0.047869
    13  H    0.035837
    14  N   -0.444077
    15  C   -0.093026
    16  H    0.036917
    17  H    0.090064
    18  H    0.071794
    19  C    0.047850
    20  H    0.019238
    21  H    0.048548
    22  H    0.045313
    23  C   -0.001837
    24  H   -0.003597
    25  H    0.037129
    26  H    0.002703
 Sum of ESP charges =   0.00000

 Normal termination of Gaussian 16 at Thu Apr 21 16:53:19 2022.
