 Gaussian 16, Revision A.03,

 ---------------------------------------------------------------------
 #n B3LYP/6-311++G(d,p) Opt freq EmpiricalDispersion=GD3BJ IOp(6/33=2)
 ---------------------------------------------------------------------

 --------------
 DMAEMA geo opt
 --------------
 Symbolic Z-matrix:
 Charge =  0 Multiplicity = 1

 SCF Done:  E(RB3LYP) =  -518.801118109     A.U. after   18 cycles
 SCF Done:  E(RB3LYP) =  -518.925079254     A.U. after   14 cycles
 SCF Done:  E(RB3LYP) =  -519.058509139     A.U. after   14 cycles
 SCF Done:  E(RB3LYP) =  -519.094712257     A.U. after   14 cycles
 SCF Done:  E(RB3LYP) =  -519.146260687     A.U. after   13 cycles
 SCF Done:  E(RB3LYP) =  -519.194953382     A.U. after   13 cycles
 SCF Done:  E(RB3LYP) =  -519.214369019     A.U. after   12 cycles
 SCF Done:  E(RB3LYP) =  -519.229923911     A.U. after   12 cycles
 SCF Done:  E(RB3LYP) =  -519.235626868     A.U. after   12 cycles
 SCF Done:  E(RB3LYP) =  -519.239504054     A.U. after   12 cycles
 SCF Done:  E(RB3LYP) =  -519.253901847     A.U. after    7 cycles
 SCF Done:  E(RB3LYP) =  -519.253902186     A.U. after    8 cycles
 SCF Done:  E(RB3LYP) =  -519.253902384     A.U. after    7 cycles
 SCF Done:  E(RB3LYP) =  -519.253902755     A.U. after    8 cycles
 SCF Done:  E(RB3LYP) =  -519.253903210     A.U. after    8 cycles
 SCF Done:  E(RB3LYP) =  -519.253903691     A.U. after    8 cycles
 SCF Done:  E(RB3LYP) =  -519.253904096     A.U. after    9 cycles
 SCF Done:  E(RB3LYP) =  -519.253904203     A.U. after    7 cycles
 Optimization completed.
    -- Stationary point found.
 Normal termination of Gaussian 16 at Thu Apr 21 16:47:53 2022.

 ----------------------------------------------------------------------
 #N Geom=AllCheck Guess=TCheck SCRF=Check Test GenChk RB3LYP/6-311++G(d
 ,p) Freq
 ----------------------------------------------------------------------

 Structure from the checkpoint file:  "DMAEMA-6.chk"
 --------------
 DMAEMA geo opt
 --------------
 Charge =  0 Multiplicity = 1

 SCF Done:  E(RB3LYP) =  -519.253904203     A.U. after    1 cycles

  Exact polarizability: 127.141  -4.965 117.363  -3.957  -7.953  97.729
 Approx polarizability: 147.855  -4.479 181.993  -8.020 -23.536 147.788

                      1                      2                      3
                      A                      A                      A
 Frequencies --     29.6195                43.1829                45.6282
 Red. masses --      2.8500                 2.9699                 3.6559
 Frc consts  --      0.0015                 0.0033                 0.0045
 IR Inten    --      0.3567                 0.5414                 0.3314

                      4                      5                      6
                      A                      A                      A
 Frequencies --     71.7232               133.2597               167.4942
 Red. masses --      6.2416                 2.8005                 1.0432
 Frc consts  --      0.0189                 0.0293                 0.0172
 IR Inten    --      3.1352                 0.8892                 0.4346

                      7                      8                      9
                      A                      A                      A
 Frequencies --    203.0926               244.3500               258.8952
 Red. masses --      3.4676                 1.7307                 1.1727
 Frc consts  --      0.0843                 0.0609                 0.0463
 IR Inten    --      1.0734                 1.2194                 3.5025

                     10                     11                     12
                      A                      A                      A
 Frequencies --    263.3617               296.3347               351.8868
 Red. masses --      1.7334                 2.2316                 3.1808
 Frc consts  --      0.0708                 0.1155                 0.2321
 IR Inten    --      0.8191                 1.5249                19.6248

                     13                     14                     15
                      A                      A                      A
 Frequencies --    376.1286               383.2987               414.4041
 Red. masses --      2.4721                 2.9348                 2.5773
 Frc consts  --      0.2061                 0.2540                 0.2608
 IR Inten    --      4.1710                 0.2079                 3.7815

                     16                     17                     18
                      A                      A                      A
 Frequencies --    437.7316               505.3775               533.3215
 Red. masses --      2.1053                 3.6545                 2.2497
 Frc consts  --      0.2377                 0.5499                 0.3770
 IR Inten    --      0.5245                 1.4135                 4.7100

                     19                     20                     21
                      A                      A                      A
 Frequencies --    607.3069               654.1013               778.5837
 Red. masses --      3.7883                 1.3041                 2.9544
 Frc consts  --      0.8232                 0.3287                 1.0552
 IR Inten    --      2.1236                10.4954                 7.2435

                     22                     23                     24
                      A                      A                      A
 Frequencies --    835.2537               845.4507               888.7745
 Red. masses --      2.8010                 5.0878                 3.1281
 Frc consts  --      1.1513                 2.1427                 1.4558
 IR Inten    --     11.7101                13.1275                 9.0201

                     25                     26                     27
                      A                      A                      A
 Frequencies --    951.4043               973.5330               975.8330
 Red. masses --      2.0297                 1.4498                 1.9807
 Frc consts  --      1.0825                 0.8096                 1.1113
 IR Inten    --      7.6421                14.4203                43.5691

                     28                     29                     30
                      A                      A                      A
 Frequencies --   1014.9508              1042.1781              1061.8935
 Red. masses --      1.6260                 2.2954                 1.6400
 Frc consts  --      0.9868                 1.4689                 1.0896
 IR Inten    --      9.8684                53.8673                17.3827

                     31                     32                     33
                      A                      A                      A
 Frequencies --   1071.7669              1078.6956              1101.1048
 Red. masses --      1.4920                 1.7819                 2.2653
 Frc consts  --      1.0097                 1.2216                 1.6182
 IR Inten    --      0.0589                 8.6549                11.6242

                     34                     35                     36
                      A                      A                      A
 Frequencies --   1119.1212              1175.1188              1183.2783
 Red. masses --      1.2984                 3.0669                 1.7194
 Frc consts  --      0.9581                 2.4953                 1.4184
 IR Inten    --      4.9415               339.2982                28.3679

                     37                     38                     39
                      A                      A                      A
 Frequencies --   1215.0083              1293.5710              1306.2811
 Red. masses --      2.1079                 1.7151                 1.7033
 Frc consts  --      1.8334                 1.6909                 1.7125
 IR Inten    --     16.2982                22.5263                13.9128

                     40                     41                     42
                      A                      A                      A
 Frequencies --   1338.0356              1346.2165              1402.5636
 Red. masses --      3.1420                 1.2256                 1.3121
 Frc consts  --      3.3143                 1.3087                 1.5207
 IR Inten    --    142.4446                17.4997                 4.0831

                     43                     44                     45
                      A                      A                      A
 Frequencies --   1413.6104              1419.3675              1437.6887
 Red. masses --      1.2866                 1.4004                 1.2285
 Frc consts  --      1.5148                 1.6623                 1.4960
 IR Inten    --      6.4839                 4.6527                11.7173

                     46                     47                     48
                      A                      A                      A
 Frequencies --   1444.3141              1469.1860              1472.6242
 Red. masses --      1.1588                 1.1513                 1.0428
 Frc consts  --      1.4242                 1.4641                 1.3324
 IR Inten    --      0.2804                 0.8402                 8.6461

                     49                     50                     51
                      A                      A                      A
 Frequencies --   1477.4062              1485.0897              1488.0314
 Red. masses --      1.1057                 1.0438                 1.1072
 Frc consts  --      1.4220                 1.3564                 1.4444
 IR Inten    --     12.8466                 9.0280                 3.8123

                     52                     53                     54
                      A                      A                      A
 Frequencies --   1491.2236              1499.7288              1502.4688
 Red. masses --      1.0631                 1.0690                 1.0477
 Frc consts  --      1.3929                 1.4166                 1.3934
 IR Inten    --     24.3269                20.3480                10.2658

                     55                     56                     57
                      A                      A                      A
 Frequencies --   1514.2802              1693.3873              1759.8651
 Red. masses --      1.0543                 5.3719                10.9692
 Frc consts  --      1.4244                 9.0760                20.0163
 IR Inten    --     16.0243                30.6401               241.9560

                     58                     59                     60
                      A                      A                      A
 Frequencies --   2905.6227              2913.8043              2936.7747
 Red. masses --      1.0621                 1.0631                 1.0716
 Frc consts  --      5.2830                 5.3181                 5.4454
 IR Inten    --     46.9416               116.2729                74.7278

                     61                     62                     63
                      A                      A                      A
 Frequencies --   3037.1008              3052.2725              3056.5470
 Red. masses --      1.0353                 1.0838                 1.0700
 Frc consts  --      5.6264                 5.9492                 5.8899
 IR Inten    --     15.6273                 7.8066                40.7156

                     64                     65                     66
                      A                      A                      A
 Frequencies --   3070.7674              3079.8626              3089.4041
 Red. masses --      1.0733                 1.0601                 1.0996
 Frc consts  --      5.9628                 5.9248                 6.1836
 IR Inten    --     35.1696                36.6263                10.5002

                     67                     68                     69
                      A                      A                      A
 Frequencies --   3098.9854              3117.4165              3134.6319
 Red. masses --      1.1035                 1.1032                 1.0984
 Frc consts  --      6.2439                 6.3167                 6.3590
 IR Inten    --     31.3704                15.2612                14.3656

                     70                     71                     72
                      A                      A                      A
 Frequencies --   3135.8486              3146.6162              3242.0438
 Red. masses --      1.1088                 1.0617                 1.1145
 Frc consts  --      6.4239                 6.1933                 6.9016
 IR Inten    --      7.3917                10.1059                 3.8118

 - Thermochemistry -
 -------------------
 Temperature   298.150 Kelvin.  Pressure   1.00000 Atm.
 Atom     1 has atomic number  1 and mass   1.00783

 Molecular mass:   157.11028 amu.
 Principal axes and moments of inertia in atomic units:
                           1         2         3
     Eigenvalues --   842.623453297.105523619.84276
           X            0.99998  -0.00670   0.00178
           Y            0.00668   0.99989   0.01308
           Z           -0.00187  -0.01307   0.99991
 This molecule is an asymmetric top.
 Rotational symmetry number  1.
 Warning -- assumption of classical behavior for rotation
           may cause significant error
 Rotational temperatures (Kelvin)      0.10279     0.02627     0.02393
 Rotational constants (GHZ):           2.14181     0.54737     0.49857
 Zero-point vibrational energy     589789.4 (Joules/Mol)
                                  140.96305 (Kcal/Mol)
 Warning -- explicit consideration of  19 degrees of freedom as
           vibrations may cause significant error
 Vibrational temperatures:     42.62    62.13    65.65   103.19   191.73
          (Kelvin)            240.99   292.21   351.57   372.49   378.92
                              426.36   506.29   541.17   551.48   596.24
                              629.80   727.13   767.33   873.78   941.11
                             1120.21  1201.74  1216.41  1278.75  1368.86
                             1400.70  1404.01  1460.29  1499.46  1527.83
                             1542.03  1552.00  1584.24  1610.17  1690.73
                             1702.47  1748.13  1861.16  1879.45  1925.13
                             1936.91  2017.98  2033.87  2042.15  2068.51
                             2078.05  2113.83  2118.78  2125.66  2136.71
                             2140.95  2145.54  2157.78  2161.72  2178.71
                             2436.41  2532.05  4180.54  4192.31  4225.36
                             4369.71  4391.54  4397.69  4418.15  4431.24
                             4444.96  4458.75  4485.27  4510.04  4511.79
                             4527.28  4664.58

 Zero-point correction=                           0.224639 (Hartree/Particle)
 Thermal correction to Energy=                    0.237612
 Thermal correction to Enthalpy=                  0.238556
 Thermal correction to Gibbs Free Energy=         0.184017
 Sum of electronic and zero-point Energies=           -519.029265
 Sum of electronic and thermal Energies=              -519.016292
 Sum of electronic and thermal Enthalpies=            -519.015348
 Sum of electronic and thermal Free Energies=         -519.069887

                     E (Thermal)             CV                S
                      KCal/Mol        Cal/Mol-Kelvin    Cal/Mol-Kelvin
 Total                  149.104             46.448            114.787
 Electronic               0.000              0.000              0.000
 Translational            0.889              2.981             41.065
 Rotational               0.889              2.981             30.687
 Vibrational            147.326             40.487             43.036
 Vibration     1          0.593              1.984              5.855
 Vibration     2          0.595              1.980              5.107
 Vibration     3          0.595              1.979              4.998
 Vibration     4          0.598              1.967              4.105
 Vibration     5          0.613              1.920              2.898
 Vibration     6          0.624              1.882              2.463
 Vibration     7          0.639              1.835              2.105
 Vibration     8          0.660              1.772              1.771
 Vibration     9          0.668              1.748              1.669
 Vibration    10          0.670              1.740              1.639
 Vibration    11          0.690              1.681              1.438
 Vibration    12          0.728              1.571              1.158
 Vibration    13          0.747              1.521              1.055
 Vibration    14          0.752              1.506              1.026
 Vibration    15          0.778              1.439              0.911
 Vibration    16          0.798              1.388              0.834
 Vibration    17          0.861              1.238              0.645
 Vibration    18          0.888              1.176              0.580
 Vibration    19          0.966              1.016              0.437

 Optimization completed.
    -- Stationary point found.
 Normal termination of Gaussian 16 at Thu Apr 21 16:49:56 2022.
 Gaussian 16:  ES64L-G16RevA.03 25-Dec-2016

 ----------------------------------------------------------------------
 #P B3LYP/6-311++G(d,p) Geom=Allcheck SCF=Tight EmpiricalDispersion=GD3
 BJ Pop=CHELPG SP IOp(6/33=2)
 ----------------------------------------------------------------------

 Structure from the checkpoint file:  "DMAEMA-6.chk"
 --------------
 DMAEMA geo opt
 --------------
 Charge =  0 Multiplicity = 1

                         Standard orientation:
 ---------------------------------------------------------------------
 Center     Atomic      Atomic             Coordinates (Angstroms)
 Number     Number       Type             X           Y           Z
 ---------------------------------------------------------------------
      1          1           0        1.638493   -1.897323    1.211461
      2          6           0        2.462585   -1.620906    0.568061
      3          1           0        3.268531   -2.335842    0.445684
      4          6           0        2.495239   -0.439708   -0.054898
      5          6           0        1.387814    0.549812    0.104935
      6          8           0        1.378690    1.629891   -0.443729
      7          8           0        0.401546    0.121337    0.920517
      8          6           0       -0.729359    1.007162    1.099959
      9          1           0       -1.163447    0.711010    2.054157
     10          1           0       -0.359357    2.031012    1.154400
     11          6           0       -1.766835    0.890117   -0.008897
     12          1           0       -2.405596    1.775030    0.069741
     13          1           0       -1.261936    0.950618   -0.989157
     14          7           0       -2.629046   -0.283649    0.097798
     15          6           0       -3.803926   -0.142143   -0.752641
     16          1           0       -3.550769   -0.079668   -1.827488
     17          1           0       -4.463463   -1.001083   -0.610573
     18          1           0       -4.356134    0.759809   -0.478933
     19          6           0       -1.930052   -1.531532   -0.193102
     20          1           0       -1.522202   -1.554712   -1.221167
     21          1           0       -1.103596   -1.676378    0.500016
     22          1           0       -2.625033   -2.366748   -0.082848
     23          6           0        3.613799    0.001447   -0.955922
     24          1           0        4.381107   -0.770711   -1.024274
     25          1           0        3.240110    0.221698   -1.959183
     26          1           0        4.069143    0.923513   -0.585694
 ---------------------------------------------------------------------

 SCF Done:  E(RB3LYP) =  -519.253904203     A.U. after   14 cycles

 The electronic state is 1-A.
 Alpha  occ. eigenvalues --  -19.16937 -19.11488 -14.31044 -10.30537 -10.23040
 Alpha  occ. eigenvalues --  -10.20159 -10.20094 -10.18927 -10.18515 -10.18464
 Alpha  occ. eigenvalues --  -10.17150  -1.11225  -1.02582  -0.92852  -0.82392
 Alpha  occ. eigenvalues --   -0.76885  -0.70930  -0.70322  -0.68154  -0.62263
 Alpha  occ. eigenvalues --   -0.59294  -0.54984  -0.51242  -0.49414  -0.48439
 Alpha  occ. eigenvalues --   -0.47998  -0.46659  -0.44941  -0.44150  -0.43431
 Alpha  occ. eigenvalues --   -0.41796  -0.40057  -0.39690  -0.38550  -0.38390
 Alpha  occ. eigenvalues --   -0.37693  -0.37106  -0.36830  -0.34694  -0.30994
 Alpha  occ. eigenvalues --   -0.28652  -0.27987  -0.22398
 Alpha virt. eigenvalues --   -0.05649  -0.00960  -0.00076   0.00843   0.01100
 Alpha virt. eigenvalues --    0.01953   0.02442   0.03173   0.03663   0.03996
 Alpha virt. eigenvalues --    0.04385   0.04846   0.05028   0.06161   0.06555

 Mulliken charges:
               1
     1  H    0.157540
     2  C   -0.601975
     3  H    0.146515
     4  C    0.705641
     5  C   -0.253811
     6  O   -0.239269
     7  O   -0.008543
     8  C   -0.488100
     9  H    0.186388
    10  H    0.204855
    11  C   -0.110514
    12  H    0.142267
    13  H    0.152744
    14  N    0.046027
    15  C   -0.288836
    16  H    0.123187
    17  H    0.128590
    18  H    0.123429
    19  C   -0.399750
    20  H    0.112347
    21  H    0.166149
    22  H    0.143922
    23  C   -0.632087
    24  H    0.132539
    25  H    0.175486
    26  H    0.175261
 Sum of Mulliken charges =  -0.00000

 Dipole moment (field-independent basis, Debye):
    X=             -0.2773    Y=             -1.4138    Z=              0.1934  Tot=              1.4537
 Quadrupole moment (field-independent basis, Debye-Ang):
   XX=            -63.6080   YY=            -69.5426   ZZ=            -70.1820
   XY=             -5.5424   XZ=              1.4392   YZ=              2.4024

 ESP charges:
               1
     1  H    0.144416
     2  C   -0.374756
     3  H    0.171214
     4  C   -0.021867
     5  C    0.705619
     6  O   -0.546778
     7  O   -0.369182
     8  C    0.120865
     9  H    0.047922
    10  H    0.040069
    11  C    0.078446
    12  H    0.054753
    13  H    0.060999
    14  N   -0.384029
    15  C   -0.157696
    16  H    0.059327
    17  H    0.103069
    18  H    0.084667
    19  C   -0.006203
    20  H    0.019177
    21  H    0.057363
    22  H    0.060376
    23  C   -0.038331
    24  H    0.031673
    25  H    0.029256
    26  H    0.029628
 Sum of ESP charges =  -0.00000

 Normal termination of Gaussian 16 at Thu Apr 21 16:55:33 2022.
