 Gaussian 16, Revision A.03,

 ---------------------------------------------------------------------
 #n B3LYP/6-311++G(d,p) Opt freq EmpiricalDispersion=GD3BJ IOp(6/33=2)
 ---------------------------------------------------------------------

 --------------
 DMAEMA geo opt
 --------------
 Symbolic Z-matrix:
 Charge =  0 Multiplicity = 1

 SCF Done:  E(RB3LYP) =  -519.238208506     A.U. after   14 cycles
 SCF Done:  E(RB3LYP) =  -519.246626088     A.U. after   13 cycles
 SCF Done:  E(RB3LYP) =  -519.248989471     A.U. after   12 cycles
 SCF Done:  E(RB3LYP) =  -519.247704996     A.U. after   12 cycles
 SCF Done:  E(RB3LYP) =  -519.249440348     A.U. after   11 cycles
 SCF Done:  E(RB3LYP) =  -519.249511289     A.U. after   10 cycles
 SCF Done:  E(RB3LYP) =  -519.249764840     A.U. after   11 cycles
 SCF Done:  E(RB3LYP) =  -519.250099803     A.U. after   14 cycles
 SCF Done:  E(RB3LYP) =  -519.250055822     A.U. after   11 cycles
 SCF Done:  E(RB3LYP) =  -519.250263569     A.U. after   11 cycles
 SCF Done:  E(RB3LYP) =  -519.254847186     A.U. after   11 cycles
 SCF Done:  E(RB3LYP) =  -519.254861521     A.U. after   10 cycles
 SCF Done:  E(RB3LYP) =  -519.254874447     A.U. after   10 cycles
 SCF Done:  E(RB3LYP) =  -519.254880143     A.U. after    9 cycles
 SCF Done:  E(RB3LYP) =  -519.254882848     A.U. after    9 cycles
 SCF Done:  E(RB3LYP) =  -519.254884149     A.U. after    9 cycles
 SCF Done:  E(RB3LYP) =  -519.254884314     A.U. after    8 cycles
 SCF Done:  E(RB3LYP) =  -519.254884502     A.U. after    8 cycles
 Optimization completed.
    -- Stationary point found.
 Normal termination of Gaussian 16 at Thu Apr 21 16:41:36 2022.

 ----------------------------------------------------------------------
 #N Geom=AllCheck Guess=TCheck SCRF=Check Test GenChk RB3LYP/6-311++G(d
 ,p) Freq
 ----------------------------------------------------------------------

 Structure from the checkpoint file:  "DMAEMA-1.chk"
 --------------
 DMAEMA geo opt
 --------------
 Charge =  0 Multiplicity = 1

 SCF Done:  E(RB3LYP) =  -519.254884502     A.U. after    1 cycles

  Exact polarizability: 130.456  -6.479 112.559 -12.421   4.948 102.519
 Approx polarizability: 162.765 -11.909 170.346 -20.857  10.456 144.467

                      1                      2                      3
                      A                      A                      A
 Frequencies --     34.2815                38.5562                71.9558
 Red. masses --      3.1556                 3.5638                 3.9015
 Frc consts  --      0.0022                 0.0031                 0.0119
 IR Inten    --      0.7137                 0.7283                 0.8884

                      4                      5                      6
                      A                      A                      A
 Frequencies --     97.2365               130.9009               190.5286
 Red. masses --      4.0955                 2.9384                 2.0164
 Frc consts  --      0.0228                 0.0297                 0.0431
 IR Inten    --      3.1015                 0.4459                 0.9415

                      7                      8                      9
                      A                      A                      A
 Frequencies --    196.7340               239.9083               250.1345
 Red. masses --      1.3688                 1.2449                 1.2335
 Frc consts  --      0.0312                 0.0422                 0.0455
 IR Inten    --      1.1672                 0.2233                 0.1897

                     10                     11                     12
                      A                      A                      A
 Frequencies --    275.7320               326.8293               374.7635
 Red. masses --      2.0370                 2.8115                 2.6042
 Frc consts  --      0.0912                 0.1769                 0.2155
 IR Inten    --      0.1825                 1.8447                 7.1219

                     13                     14                     15
                      A                      A                      A
 Frequencies --    385.3049               393.6370               401.4895
 Red. masses --      2.5021                 2.9819                 2.4082
 Frc consts  --      0.2189                 0.2722                 0.2287
 IR Inten    --      2.2469                12.8822                 0.7000

                     16                     17                     18
                      A                      A                      A
 Frequencies --    439.3442               483.8985               571.4207
 Red. masses --      2.1727                 4.0213                 2.6078
 Frc consts  --      0.2471                 0.5548                 0.5017
 IR Inten    --      0.3447                 9.4839                 4.2293

                     19                     20                     21
                      A                      A                      A
 Frequencies --    596.8334               663.9449               783.0950
 Red. masses --      3.5907                 1.3902                 2.9151
 Frc consts  --      0.7536                 0.3611                 1.0533
 IR Inten    --      3.6229                13.4411                17.3287

                     22                     23                     24
                      A                      A                      A
 Frequencies --    824.7141               841.5098               890.3313
 Red. masses --      2.5696                 4.5588                 2.5358
 Frc consts  --      1.0297                 1.9020                 1.1843
 IR Inten    --     17.0094                 7.0666                 3.3746

                     25                     26                     27
                      A                      A                      A
 Frequencies --    951.9673               969.1875               978.3074
 Red. masses --      1.8802                 2.2846                 1.3370
 Frc consts  --      1.0039                 1.2644                 0.7539
 IR Inten    --      1.0067                33.0238                33.9180

                     28                     29                     30
                      A                      A                      A
 Frequencies --   1028.8102              1040.2240              1065.6429
 Red. masses --      1.4327                 3.0450                 1.7111
 Frc consts  --      0.8935                 1.9413                 1.1449
 IR Inten    --      8.6226                26.5619                20.8198

                     31                     32                     33
                      A                      A                      A
 Frequencies --   1071.4234              1086.1796              1093.0316
 Red. masses --      1.4880                 2.0159                 1.7869
 Frc consts  --      1.0064                 1.4012                 1.2578
 IR Inten    --      0.0494                15.0467                 4.0829

                     34                     35                     36
                      A                      A                      A
 Frequencies --   1120.9542              1178.2078              1183.6326
 Red. masses --      1.3259                 1.5366                 3.9427
 Frc consts  --      0.9816                 1.2568                 3.2545
 IR Inten    --      6.3780                 2.8150               422.9638

                     37                     38                     39
                      A                      A                      A
 Frequencies --   1236.8701              1293.9919              1312.4598
 Red. masses --      2.2007                 1.7441                 3.1903
 Frc consts  --      1.9836                 1.7206                 3.2378
 IR Inten    --     13.5433                17.3877               154.0594

                     40                     41                     42
                      A                      A                      A
 Frequencies --   1316.3420              1319.9042              1401.3622
 Red. masses --      1.4588                 1.5343                 1.3517
 Frc consts  --      1.4893                 1.5748                 1.5639
 IR Inten    --      4.4567                27.5127                10.9422

                     43                     44                     45
                      A                      A                      A
 Frequencies --   1409.6693              1418.4426              1433.8023
 Red. masses --      1.1936                 1.3852                 1.2486
 Frc consts  --      1.3974                 1.6420                 1.5123
 IR Inten    --      9.2043                 3.1383                13.1661

                     46                     47                     48
                      A                      A                      A
 Frequencies --   1444.1428              1467.0509              1476.4461
 Red. masses --      1.1552                 1.1472                 1.0435
 Frc consts  --      1.4195                 1.4547                 1.3402
 IR Inten    --      1.5606                 0.6392                 7.6898

                     49                     50                     51
                      A                      A                      A
 Frequencies --   1484.8356              1485.8949              1493.3767
 Red. masses --      1.0865                 1.0522                 1.0577
 Frc consts  --      1.4114                 1.3688                 1.3898
 IR Inten    --      3.8802                 1.4459                19.7582

                     52                     53                     54
                      A                      A                      A
 Frequencies --   1496.2573              1498.8960              1510.6833
 Red. masses --      1.0995                 1.0826                 1.0538
 Frc consts  --      1.4503                 1.4331                 1.4170
 IR Inten    --     36.8742                15.4233                 6.1642

                     55                     56                     57
                      A                      A                      A
 Frequencies --   1513.0219              1694.7208              1770.0986
 Red. masses --      1.0541                 5.6336                10.5276
 Frc consts  --      1.4218                 9.5331                19.4345
 IR Inten    --     14.3286                41.1007               176.0321

                     58                     59                     60
                      A                      A                      A
 Frequencies --   2882.9551              2902.3351              2913.1903
 Red. masses --      1.0722                 1.0621                 1.0631
 Frc consts  --      5.2507                 5.2710                 5.3157
 IR Inten    --     69.1076                49.3205               233.9942

                     61                     62                     63
                      A                      A                      A
 Frequencies --   3034.9878              3055.3213              3061.8743
 Red. masses --      1.0350                 1.0697                 1.0843
 Frc consts  --      5.6168                 5.8831                 5.9893
 IR Inten    --     17.3554                22.8223                26.0381

                     64                     65                     66
                      A                      A                      A
 Frequencies --   3075.0399              3077.5760              3088.5276
 Red. masses --      1.0692                 1.0647                 1.0998
 Frc consts  --      5.9565                 5.9414                 6.1813
 IR Inten    --     49.1855                12.0576                12.4537

                     67                     68                     69
                      A                      A                      A
 Frequencies --   3099.1962              3111.0956              3125.8143
 Red. masses --      1.1033                 1.1032                 1.1013
 Frc consts  --      6.2439                 6.2911                 6.3399
 IR Inten    --     29.2609                21.5152                11.3706

                     70                     71                     72
                      A                      A                      A
 Frequencies --   3135.3702              3144.8445              3237.6920
 Red. masses --      1.1031                 1.0599                 1.1166
 Frc consts  --      6.3889                 6.1759                 6.8962
 IR Inten    --      8.4629                 8.6622                 2.2134

 - Thermochemistry -
 -------------------
 Temperature   298.150 Kelvin.  Pressure   1.00000 Atm.
 Atom     1 has atomic number  1 and mass   1.00783

 Molecular mass:   157.11028 amu.
 Principal axes and moments of inertia in atomic units:
                           1         2         3
     Eigenvalues --  1046.883332864.050852926.90118
           X            0.99991   0.01213  -0.00491
           Y           -0.01215   0.99991  -0.00495
           Z            0.00485   0.00501   0.99998
 This molecule is an asymmetric top.
 Rotational symmetry number  1.
 Warning -- assumption of classical behavior for rotation
           may cause significant error
 Rotational temperatures (Kelvin)      0.08274     0.03024     0.02959
 Rotational constants (GHZ):           1.72392     0.63014     0.61660
 Zero-point vibrational energy     590325.7 (Joules/Mol)
                                  141.09122 (Kcal/Mol)
 Warning -- explicit consideration of  19 degrees of freedom as
           vibrations may cause significant error
 Vibrational temperatures:     49.32    55.47   103.53   139.90   188.34
          (Kelvin)            274.13   283.06   345.17   359.89   396.72
                              470.23   539.20   554.37   566.36   577.65
                              632.12   696.22   822.15   858.71   955.27
                             1126.70  1186.58  1210.74  1280.99  1369.67
                             1394.44  1407.57  1480.23  1496.65  1533.22
                             1541.54  1562.77  1572.63  1612.80  1695.18
                             1702.98  1779.58  1861.77  1888.34  1893.92
                             1899.05  2016.25  2028.20  2040.82  2062.92
                             2077.80  2110.76  2124.28  2136.35  2137.87
                             2148.64  2152.78  2156.58  2173.54  2176.90
                             2438.33  2546.78  4147.93  4175.81  4191.43
                             4366.67  4395.93  4405.35  4424.30  4427.95
                             4443.70  4459.05  4476.17  4497.35  4511.10
                             4524.73  4658.32

 Zero-point correction=                           0.224843 (Hartree/Particle)
 Thermal correction to Energy=                    0.237612
 Thermal correction to Enthalpy=                  0.238557
 Thermal correction to Gibbs Free Energy=         0.185036
 Sum of electronic and zero-point Energies=           -519.030041
 Sum of electronic and thermal Energies=              -519.017272
 Sum of electronic and thermal Enthalpies=            -519.016328
 Sum of electronic and thermal Free Energies=         -519.069848

                     E (Thermal)             CV                S
                      KCal/Mol        Cal/Mol-Kelvin    Cal/Mol-Kelvin
 Total                  149.104             46.241            112.642
 Electronic               0.000              0.000              0.000
 Translational            0.889              2.981             41.065
 Rotational               0.889              2.981             30.552
 Vibrational            147.327             40.279             41.026
 Vibration     1          0.594              1.983              5.565
 Vibration     2          0.594              1.981              5.332
 Vibration     3          0.598              1.967              4.099
 Vibration     4          0.603              1.951              3.509
 Vibration     5          0.612              1.922              2.933
 Vibration     6          0.634              1.853              2.223
 Vibration     7          0.636              1.844              2.163
 Vibration     8          0.657              1.779              1.804
 Vibration     9          0.663              1.763              1.730
 Vibration    10          0.677              1.718              1.560
 Vibration    11          0.710              1.622              1.276
 Vibration    12          0.746              1.524              1.060
 Vibration    13          0.754              1.502              1.018
 Vibration    14          0.761              1.484              0.986
 Vibration    15          0.767              1.467              0.957
 Vibration    16          0.799              1.384              0.829
 Vibration    17          0.840              1.286              0.700
 Vibration    18          0.928              1.093              0.502
 Vibration    19          0.955              1.039              0.455

 Optimization completed.
    -- Stationary point found.
 Normal termination of Gaussian 16 at Thu Apr 21 16:43:46 2022.
 Gaussian 16:  ES64L-G16RevA.03 25-Dec-2016

 ----------------------------------------------------------------------
 #P B3LYP/6-311++G(d,p) Geom=Allcheck SCF=Tight EmpiricalDispersion=GD3
 BJ Pop=CHELPG SP IOp(6/33=2)
 ----------------------------------------------------------------------

 Structure from the checkpoint file:  "DMAEMA-1.chk"
 --------------
 DMAEMA geo opt
 --------------
 Charge =  0 Multiplicity = 1

                         Standard orientation:
 ---------------------------------------------------------------------
 Center     Atomic      Atomic             Coordinates (Angstroms)
 Number     Number       Type             X           Y           Z
 ---------------------------------------------------------------------
      1          1           0        2.930496   -1.936141   -0.768207
      2          6           0        3.152934   -0.884732   -0.899995
      3          1           0        4.024971   -0.613876   -1.483812
      4          6           0        2.367784    0.048015   -0.356284
      5          6           0        1.182756   -0.423988    0.427435
      6          8           0        0.855297   -1.579704    0.568923
      7          8           0        0.526798    0.618546    0.985920
      8          6           0       -0.727501    0.346254    1.637987
      9          1           0       -0.766958   -0.705618    1.915854
     10          1           0       -0.735040    0.957333    2.541637
     11          6           0       -1.879824    0.757905    0.731807
     12          1           0       -2.819245    0.650871    1.310990
     13          1           0       -1.765576    1.820064    0.499585
     14          7           0       -1.923211    0.025382   -0.524015
     15          6           0       -2.315253   -1.368656   -0.355896
     16          1           0       -3.326892   -1.470181    0.080183
     17          1           0       -2.312101   -1.862444   -1.329550
     18          1           0       -1.598489   -1.890824    0.276603
     19          6           0       -2.761699    0.698782   -1.504705
     20          1           0       -3.823948    0.751064   -1.199873
     21          1           0       -2.401964    1.717748   -1.665007
     22          1           0       -2.710321    0.166354   -2.456905
     23          6           0        2.603523    1.526305   -0.497102
     24          1           0        2.735196    1.999264    0.479268
     25          1           0        3.492409    1.715121   -1.101207
     26          1           0        1.746871    2.013546   -0.969682
 ---------------------------------------------------------------------

 SCF Done:  E(RB3LYP) =  -519.254884502     A.U. after   14 cycles

 The electronic state is 1-A.
 Alpha  occ. eigenvalues --  -19.16614 -19.10604 -14.30984 -10.30031 -10.22935
 Alpha  occ. eigenvalues --  -10.20328 -10.19509 -10.18957 -10.18127 -10.17768
 Alpha  occ. eigenvalues --  -10.17009  -1.10666  -1.02052  -0.92912  -0.81848
 Alpha  occ. eigenvalues --   -0.76950  -0.70803  -0.69811  -0.68329  -0.62119
 Alpha  occ. eigenvalues --   -0.58050  -0.55430  -0.50607  -0.49395  -0.48036
 Alpha  occ. eigenvalues --   -0.47768  -0.46863  -0.44366  -0.43845  -0.42357
 Alpha  occ. eigenvalues --   -0.41148  -0.40170  -0.40006  -0.38985  -0.38242
 Alpha  occ. eigenvalues --   -0.37527  -0.36682  -0.36255  -0.34459  -0.30531
 Alpha  occ. eigenvalues --   -0.28151  -0.27222  -0.22377
 Alpha virt. eigenvalues --   -0.04983  -0.01070   0.00079   0.00549   0.01150
 Alpha virt. eigenvalues --    0.02237   0.02623   0.03175   0.03505   0.03656
 Alpha virt. eigenvalues --    0.04364   0.05168   0.05555   0.05837   0.06877

 Mulliken charges:
               1
     1  H    0.201336
     2  C   -0.652617
     3  H    0.130596
     4  C    0.940144
     5  C   -0.497514
     6  O   -0.263939
     7  O    0.015335
     8  C   -0.309373
     9  H    0.198512
    10  H    0.166356
    11  C   -0.276435
    12  H    0.109598
    13  H    0.172874
    14  N    0.079606
    15  C   -0.388407
    16  H    0.114364
    17  H    0.138622
    18  H    0.135537
    19  C   -0.299050
    20  H    0.118616
    21  H    0.125082
    22  H    0.131793
    23  C   -0.574462
    24  H    0.172713
    25  H    0.148617
    26  H    0.162092
 Sum of Mulliken charges =  -0.00000

 Dipole moment (field-independent basis, Debye):
    X=             -0.6708    Y=              1.9036    Z=             -0.1748  Tot=              2.0259
 Quadrupole moment (field-independent basis, Debye-Ang):
   XX=            -63.0628   YY=            -71.0669   ZZ=            -66.3666
   XY=              0.9740   XZ=             -3.0297   YZ=              1.6370

 ESP charges:
               1
     1  H    0.129690
     2  C   -0.301315
     3  H    0.142531
     4  C    0.004554
     5  C    0.579100
     6  O   -0.499799
     7  O   -0.302750
     8  C    0.032813
     9  H    0.092944
    10  H    0.045470
    11  C    0.129382
    12  H   -0.003009
    13  H    0.054892
    14  N   -0.302821
    15  C   -0.023054
    16  H    0.022182
    17  H    0.067909
    18  H    0.052367
    19  C   -0.190344
    20  H    0.060241
    21  H    0.090897
    22  H    0.100478
    23  C   -0.094431
    24  H    0.027064
    25  H    0.051462
    26  H    0.033548
 Sum of ESP charges =  -0.00000

 Normal termination of Gaussian 16 at Thu Apr 21 16:49:33 2022.
