 Gaussian 16, Revision A.03,

 ---------------------------------------------------------------------
 #n B3LYP/6-311++G(d,p) Opt freq EmpiricalDispersion=GD3BJ IOp(6/33=2)
 ---------------------------------------------------------------------

 --------------
 DMAEMA geo opt
 --------------
 Symbolic Z-matrix:
 Charge =  0 Multiplicity = 1

 SCF Done:  E(RB3LYP) =  -519.226880624     A.U. after   14 cycles
 SCF Done:  E(RB3LYP) =  -519.231509306     A.U. after   13 cycles
 SCF Done:  E(RB3LYP) =  -519.236426804     A.U. after   12 cycles
 SCF Done:  E(RB3LYP) =  -519.242947084     A.U. after   13 cycles
 SCF Done:  E(RB3LYP) =  -519.248554357     A.U. after   14 cycles
 SCF Done:  E(RB3LYP) =  -519.250075422     A.U. after   12 cycles
 SCF Done:  E(RB3LYP) =  -519.250785336     A.U. after   11 cycles
 SCF Done:  E(RB3LYP) =  -519.251011229     A.U. after   11 cycles
 SCF Done:  E(RB3LYP) =  -519.251124031     A.U. after   11 cycles
 SCF Done:  E(RB3LYP) =  -519.251151995     A.U. after   11 cycles
 SCF Done:  E(RB3LYP) =  -519.253309205     A.U. after   12 cycles
 SCF Done:  E(RB3LYP) =  -519.253669021     A.U. after   11 cycles
 SCF Done:  E(RB3LYP) =  -519.253728598     A.U. after   10 cycles
 SCF Done:  E(RB3LYP) =  -519.253730301     A.U. after   11 cycles
 SCF Done:  E(RB3LYP) =  -519.253736020     A.U. after   10 cycles
 SCF Done:  E(RB3LYP) =  -519.253737400     A.U. after    9 cycles
 SCF Done:  E(RB3LYP) =  -519.253737671     A.U. after    8 cycles
 SCF Done:  E(RB3LYP) =  -519.253737694     A.U. after    7 cycles
 Optimization completed.
    -- Stationary point found.
 Normal termination of Gaussian 16 at Thu Apr 21 16:44:07 2022.

 ----------------------------------------------------------------------
 #N Geom=AllCheck Guess=TCheck SCRF=Check Test GenChk RB3LYP/6-311++G(d
 ,p) Freq
 ----------------------------------------------------------------------

 Structure from the checkpoint file:  "DMAEMA-3.chk"
 --------------
 DMAEMA geo opt
 --------------
 Charge =  0 Multiplicity = 1

 SCF Done:  E(RB3LYP) =  -519.253737694     A.U. after    1 cycles

  Exact polarizability: 133.861   1.724 121.082   3.856   6.601  90.971
 Approx polarizability: 153.239   9.741 186.589   6.237  18.232 137.435

                      1                      2                      3
                      A                      A                      A
 Frequencies --     28.7362                38.6757                57.8734
 Red. masses --      3.2742                 2.8196                 3.8912
 Frc consts  --      0.0016                 0.0025                 0.0077
 IR Inten    --      0.1143                 0.4551                 0.1089

                      4                      5                      6
                      A                      A                      A
 Frequencies --     65.9459               132.3314               166.3891
 Red. masses --      4.4264                 3.3274                 1.1550
 Frc consts  --      0.0113                 0.0343                 0.0188
 IR Inten    --      1.4984                 2.1865                 0.3155

                      7                      8                      9
                      A                      A                      A
 Frequencies --    176.3377               242.1512               254.4189
 Red. masses --      2.5663                 1.3099                 1.1790
 Frc consts  --      0.0470                 0.0453                 0.0450
 IR Inten    --      3.0622                 1.2571                 2.2002

                     10                     11                     12
                      A                      A                      A
 Frequencies --    266.5600               288.9914               303.5363
 Red. masses --      2.5179                 1.8593                 3.8207
 Frc consts  --      0.1054                 0.0915                 0.2074
 IR Inten    --      2.0649                 2.0072                11.4304

                     13                     14                     15
                      A                      A                      A
 Frequencies --    375.1539               384.6126               389.1729
 Red. masses --      2.2645                 2.7559                 3.0704
 Frc consts  --      0.1878                 0.2402                 0.2740
 IR Inten    --      4.2885                 0.9446                 1.3185

                     16                     17                     18
                      A                      A                      A
 Frequencies --    438.5026               505.7166               524.9309
 Red. masses --      2.0842                 3.6893                 2.4719
 Frc consts  --      0.2361                 0.5559                 0.4013
 IR Inten    --      0.8240                 0.8520                 9.3308

                     19                     20                     21
                      A                      A                      A
 Frequencies --    614.4964               655.1172               786.7792
 Red. masses --      3.7617                 1.3092                 2.9066
 Frc consts  --      0.8369                 0.3310                 1.0601
 IR Inten    --      1.0375                 6.9685                13.9319

                     22                     23                     24
                      A                      A                      A
 Frequencies --    836.3723               865.3891               894.0405
 Red. masses --      2.7565                 3.5900                 3.4316
 Frc consts  --      1.1361                 1.5840                 1.6161
 IR Inten    --     15.3644                 3.9602                 7.1545

                     25                     26                     27
                      A                      A                      A
 Frequencies --    959.4598               974.2367               982.6743
 Red. masses --      2.0444                 1.3339                 2.2643
 Frc consts  --      1.1088                 0.7459                 1.2883
 IR Inten    --      3.5908                33.2017                28.3356

                     28                     29                     30
                      A                      A                      A
 Frequencies --   1019.9420              1046.3191              1062.2801
 Red. masses --      1.5749                 2.6523                 1.6084
 Frc consts  --      0.9653                 1.7108                 1.0694
 IR Inten    --      8.0761                66.9503                12.1501

                     31                     32                     33
                      A                      A                      A
 Frequencies --   1071.5209              1074.3321              1111.0502
 Red. masses --      1.4922                 1.7505                 1.8980
 Frc consts  --      1.0094                 1.1904                 1.3805
 IR Inten    --      0.2172                 8.0410                 8.1139

                     34                     35                     36
                      A                      A                      A
 Frequencies --   1120.3175              1180.0910              1186.5963
 Red. masses --      1.4043                 1.5228                 4.3623
 Frc consts  --      1.0384                 1.2494                 3.6188
 IR Inten    --      7.5175                 8.1754               435.9066

                     37                     38                     39
                      A                      A                      A
 Frequencies --   1218.3518              1269.0274              1304.3402
 Red. masses --      2.1306                 1.2305                 2.2191
 Frc consts  --      1.8634                 1.1676                 2.2244
 IR Inten    --     12.1263                 6.9380                 9.9823

                     40                     41                     42
                      A                      A                      A
 Frequencies --   1335.5170              1339.8637              1398.9442
 Red. masses --      1.9730                 1.6698                 1.3312
 Frc consts  --      2.0733                 1.7662                 1.5349
 IR Inten    --     86.3497                91.3214                 1.4595

                     43                     44                     45
                      A                      A                      A
 Frequencies --   1414.8472              1424.2774              1438.8506
 Red. masses --      1.2808                 1.5460                 1.2312
 Frc consts  --      1.5107                 1.8478                 1.5018
 IR Inten    --      7.5613                 3.3957                15.3354

                     46                     47                     48
                      A                      A                      A
 Frequencies --   1444.8912              1467.2691              1472.6553
 Red. masses --      1.1687                 1.1384                 1.0426
 Frc consts  --      1.4375                 1.4440                 1.3322
 IR Inten    --      0.3419                 0.1600                 8.4346

                     49                     50                     51
                      A                      A                      A
 Frequencies --   1484.1758              1486.6515              1490.8692
 Red. masses --      1.0423                 1.1317                 1.0577
 Frc consts  --      1.3527                 1.4737                 1.3851
 IR Inten    --      6.4755                 4.0277                18.5310

                     52                     53                     54
                      A                      A                      A
 Frequencies --   1497.9388              1498.5186              1504.4894
 Red. masses --      1.0627                 1.0709                 1.0712
 Frc consts  --      1.4049                 1.4168                 1.4285
 IR Inten    --     22.0480                 8.2355                 8.8857

                     55                     56                     57
                      A                      A                      A
 Frequencies --   1514.2559              1693.3008              1761.9583
 Red. masses --      1.0548                 5.3458                11.6174
 Frc consts  --      1.4251                 9.0309                21.2497
 IR Inten    --     17.8870                31.3171               292.1087

                     58                     59                     60
                      A                      A                      A
 Frequencies --   2903.3739              2904.9489              2917.2918
 Red. masses --      1.0640                 1.0682                 1.0657
 Frc consts  --      5.2842                 5.3109                 5.3436
 IR Inten    --     49.2188                37.6927               185.3061

                     61                     62                     63
                      A                      A                      A
 Frequencies --   3037.0283              3050.9967              3056.5391
 Red. masses --      1.0353                 1.0715                 1.0677
 Frc consts  --      5.6262                 5.8768                 5.8772
 IR Inten    --     15.9560                 1.3727                28.0787

                     64                     65                     66
                      A                      A                      A
 Frequencies --   3064.3522              3071.9074              3089.2960
 Red. masses --      1.0727                 1.0739                 1.0996
 Frc consts  --      5.9350                 5.9705                 6.1831
 IR Inten    --     44.3291                32.2769                10.1317

                     67                     68                     69
                      A                      A                      A
 Frequencies --   3099.7199              3107.0063              3117.3948
 Red. masses --      1.1034                 1.1085                 1.1032
 Frc consts  --      6.2466                 6.3050                 6.3166
 IR Inten    --     29.7661                18.1070                15.1672

                     70                     71                     72
                      A                      A                      A
 Frequencies --   3138.1724              3145.9047              3240.6992
 Red. masses --      1.0974                 1.0614                 1.1147
 Frc consts  --      6.3674                 6.1891                 6.8974
 IR Inten    --     14.6459                10.2298                 3.4092

 - Thermochemistry -
 -------------------
 Temperature   298.150 Kelvin.  Pressure   1.00000 Atm.
 Atom     1 has atomic number  1 and mass   1.00783

 Molecular mass:   157.11028 amu.
 Principal axes and moments of inertia in atomic units:
                           1         2         3
     Eigenvalues --   730.582553605.954204121.42720
           X            0.99998  -0.00512   0.00320
           Y            0.00516   0.99990  -0.01320
           Z           -0.00314   0.01322   0.99991
 This molecule is an asymmetric top.
 Rotational symmetry number  1.
 Warning -- assumption of classical behavior for rotation
           may cause significant error
 Rotational temperatures (Kelvin)      0.11855     0.02402     0.02102
 Rotational constants (GHZ):           2.47028     0.50049     0.43789
 Zero-point vibrational energy     589081.1 (Joules/Mol)
                                  140.79377 (Kcal/Mol)
 Warning -- explicit consideration of  19 degrees of freedom as
           vibrations may cause significant error
 Vibrational temperatures:     41.35    55.65    83.27    94.88   190.40
          (Kelvin)            239.40   253.71   348.40   366.05   383.52
                              415.79   436.72   539.76   553.37   559.93
                              630.91   727.61   755.26   884.12   942.57
                             1132.00  1203.35  1245.10  1286.32  1380.45
                             1401.71  1413.85  1467.47  1505.42  1528.38
                             1541.68  1545.72  1598.55  1611.89  1697.89
                             1707.25  1752.94  1825.85  1876.65  1921.51
                             1927.76  2012.77  2035.65  2049.22  2070.19
                             2078.88  2111.07  2118.82  2135.40  2138.96
                             2145.03  2155.20  2156.03  2164.62  2178.68
                             2436.28  2535.07  4177.31  4179.57  4197.33
                             4369.61  4389.70  4397.68  4408.92  4419.79
                             4444.81  4459.81  4470.29  4485.24  4515.13
                             4526.26  4662.64

 Zero-point correction=                           0.224369 (Hartree/Particle)
 Thermal correction to Energy=                    0.237469
 Thermal correction to Enthalpy=                  0.238413
 Thermal correction to Gibbs Free Energy=         0.183540
 Sum of electronic and zero-point Energies=           -519.029369
 Sum of electronic and thermal Energies=              -519.016269
 Sum of electronic and thermal Enthalpies=            -519.015324
 Sum of electronic and thermal Free Energies=         -519.070198

                     E (Thermal)             CV                S
                      KCal/Mol        Cal/Mol-Kelvin    Cal/Mol-Kelvin
 Total                  149.014             46.571            115.491
 Electronic               0.000              0.000              0.000
 Translational            0.889              2.981             41.065
 Rotational               0.889              2.981             30.763
 Vibrational            147.237             40.610             43.663
 Vibration     1          0.593              1.984              5.915
 Vibration     2          0.594              1.981              5.326
 Vibration     3          0.596              1.974              4.528
 Vibration     4          0.597              1.971              4.271
 Vibration     5          0.612              1.921              2.912
 Vibration     6          0.624              1.884              2.476
 Vibration     7          0.628              1.872              2.367
 Vibration     8          0.658              1.776              1.787
 Vibration     9          0.665              1.755              1.700
 Vibration    10          0.672              1.734              1.618
 Vibration    11          0.686              1.694              1.480
 Vibration    12          0.695              1.667              1.397
 Vibration    13          0.746              1.523              1.059
 Vibration    14          0.754              1.503              1.021
 Vibration    15          0.757              1.493              1.003
 Vibration    16          0.799              1.386              0.831
 Vibration    17          0.861              1.237              0.644
 Vibration    18          0.880              1.195              0.599
 Vibration    19          0.974              1.001              0.425

 Optimization completed.
    -- Stationary point found.
 Normal termination of Gaussian 16 at Thu Apr 21 16:46:04 2022.
 Gaussian 16:  ES64L-G16RevA.03 25-Dec-2016

 ----------------------------------------------------------------------
 #P B3LYP/6-311++G(d,p) Geom=Allcheck SCF=Tight EmpiricalDispersion=GD3
 BJ Pop=CHELPG SP IOp(6/33=2)
 ----------------------------------------------------------------------

 Structure from the checkpoint file:  "DMAEMA-3.chk"
 --------------
 DMAEMA geo opt
 --------------
 Charge =  0 Multiplicity = 1

                         Standard orientation:
 ---------------------------------------------------------------------
 Center     Atomic      Atomic             Coordinates (Angstroms)
 Number     Number       Type             X           Y           Z
 ---------------------------------------------------------------------
      1          1           0       -1.123465    1.964043    0.755476
      2          6           0       -2.159432    1.769608    0.512810
      3          1           0       -2.863802    2.587461    0.616019
      4          6           0       -2.564891    0.565041    0.101449
      5          6           0       -1.599492   -0.565696   -0.046057
      6          8           0       -1.919321   -1.672200   -0.420201
      7          8           0       -0.333382   -0.233332    0.277193
      8          6           0        0.658100   -1.277281    0.140753
      9          1           0        0.346674   -2.126941    0.751886
     10          1           0        0.701872   -1.596663   -0.902104
     11          6           0        2.003820   -0.753032    0.605127
     12          1           0        1.874218   -0.234082    1.573926
     13          1           0        2.629088   -1.629865    0.796672
     14          7           0        2.705260    0.073962   -0.371493
     15          6           0        2.089559    1.382029   -0.570818
     16          1           0        2.077289    1.985641    0.356199
     17          1           0        2.653207    1.931063   -1.328112
     18          1           0        1.063491    1.273022   -0.915878
     19          6           0        4.111880    0.215014   -0.019008
     20          1           0        4.263208    0.742173    0.941672
     21          1           0        4.579261   -0.769675    0.054039
     22          1           0        4.628833    0.779439   -0.798039
     23          6           0       -3.987939    0.232812   -0.247371
     24          1           0       -4.630458    1.104558   -0.117306
     25          1           0       -4.063131   -0.113854   -1.281202
     26          1           0       -4.361116   -0.580777    0.379956
 ---------------------------------------------------------------------

 SCF Done:  E(RB3LYP) =  -519.253737694     A.U. after   14 cycles

 The electronic state is 1-A.
 Alpha  occ. eigenvalues --  -19.16974 -19.11423 -14.31268 -10.30434 -10.23143
 Alpha  occ. eigenvalues --  -10.20494 -10.20144 -10.19131 -10.18605 -10.18474
 Alpha  occ. eigenvalues --  -10.17115  -1.11288  -1.02547  -0.93077  -0.82387
 Alpha  occ. eigenvalues --   -0.77308  -0.71100  -0.70258  -0.67841  -0.62356
 Alpha  occ. eigenvalues --   -0.58624  -0.56371  -0.51038  -0.50298  -0.48519
 Alpha  occ. eigenvalues --   -0.47190  -0.46587  -0.46239  -0.43844  -0.42855
 Alpha  occ. eigenvalues --   -0.41491  -0.40433  -0.39870  -0.38696  -0.38321
 Alpha  occ. eigenvalues --   -0.37626  -0.37254  -0.36807  -0.35012  -0.31197
 Alpha  occ. eigenvalues --   -0.28498  -0.27943  -0.22611
 Alpha virt. eigenvalues --   -0.05569  -0.01127  -0.00198   0.00632   0.01350
 Alpha virt. eigenvalues --    0.01609   0.02232   0.03272   0.03735   0.03998
 Alpha virt. eigenvalues --    0.04318   0.04498   0.05221   0.06071   0.06469

 Mulliken charges:
               1
     1  H    0.147324
     2  C   -0.525995
     3  H    0.149791
     4  C    0.609342
     5  C   -0.092931
     6  O   -0.250766
     7  O   -0.066034
     8  C   -0.143300
     9  H    0.185930
    10  H    0.221475
    11  C   -0.547317
    12  H    0.145688
    13  H    0.164789
    14  N    0.078087
    15  C   -0.394890
    16  H    0.117049
    17  H    0.126191
    18  H    0.165763
    19  C   -0.290304
    20  H    0.117731
    21  H    0.125403
    22  H    0.135610
    23  C   -0.666644
    24  H    0.133870
    25  H    0.177921
    26  H    0.176217
 Sum of Mulliken charges =  -0.00000

 Dipole moment (field-independent basis, Debye):
    X=              1.0390    Y=              1.7808    Z=              1.0778  Tot=              2.3265
 Quadrupole moment (field-independent basis, Debye-Ang):
   XX=            -63.6371   YY=            -69.7989   ZZ=            -70.7741
   XY=             -6.4300   XZ=              0.3614   YZ=             -2.6077

 ESP charges:
               1
     1  H    0.106269
     2  C   -0.294263
     3  H    0.153509
     4  C   -0.092866
     5  C    0.773275
     6  O   -0.554594
     7  O   -0.384915
     8  C    0.106414
     9  H    0.034581
    10  H    0.058019
    11  C    0.104656
    12  H    0.025804
    13  H    0.056974
    14  N   -0.402743
    15  C    0.034292
    16  H    0.037247
    17  H    0.040823
    18  H    0.042134
    19  C   -0.124299
    20  H    0.045594
    21  H    0.077626
    22  H    0.097080
    23  C   -0.039386
    24  H    0.035641
    25  H    0.034558
    26  H    0.028571
 Sum of ESP charges =   0.00000

 Normal termination of Gaussian 16 at Thu Apr 21 16:51:43 2022.
