 Gaussian 16, Revision A.03,

 ---------------------------------------------------------------------
 #n B3LYP/6-311++G(d,p) Opt freq EmpiricalDispersion=GD3BJ IOp(6/33=2)
 ---------------------------------------------------------------------

 ----------------
 MAA1-VP1 geo opt
 ----------------
 Symbolic Z-matrix:
 Charge =  0 Multiplicity = 1

 SCF Done:  E(RB3LYP) =  -632.358434276     A.U. after   16 cycles
 SCF Done:  E(RB3LYP) =  -632.385828188     A.U. after   15 cycles
 SCF Done:  E(RB3LYP) =  -632.389272126     A.U. after   16 cycles
 SCF Done:  E(RB3LYP) =  -632.392615109     A.U. after   15 cycles
 SCF Done:  E(RB3LYP) =  -632.394231802     A.U. after   15 cycles
 SCF Done:  E(RB3LYP) =  -632.395925359     A.U. after   14 cycles
 SCF Done:  E(RB3LYP) =  -632.397419568     A.U. after   14 cycles
 SCF Done:  E(RB3LYP) =  -632.399248779     A.U. after   16 cycles
 SCF Done:  E(RB3LYP) =  -632.400424652     A.U. after   16 cycles
 SCF Done:  E(RB3LYP) =  -632.401279434     A.U. after   16 cycles
 SCF Done:  E(RB3LYP) =  -632.403304505     A.U. after   11 cycles
 SCF Done:  E(RB3LYP) =  -632.403306549     A.U. after   11 cycles
 SCF Done:  E(RB3LYP) =  -632.403308461     A.U. after   11 cycles
 SCF Done:  E(RB3LYP) =  -632.403310129     A.U. after   11 cycles
 SCF Done:  E(RB3LYP) =  -632.403311029     A.U. after   11 cycles
 SCF Done:  E(RB3LYP) =  -632.403311451     A.U. after   11 cycles
 SCF Done:  E(RB3LYP) =  -632.403311558     A.U. after   10 cycles
 SCF Done:  E(RB3LYP) =  -632.403311584     A.U. after   10 cycles
 Optimization completed.
    -- Stationary point found.
 Normal termination of Gaussian 16 at Thu Apr 21 15:07:27 2022.

 ----------------------------------------------------------------------
 #N Geom=AllCheck Guess=TCheck SCRF=Check Test GenChk RB3LYP/6-311++G(d
 ,p) Freq
 ----------------------------------------------------------------------

 Structure from the checkpoint file:  "MAA1-VP1-5.chk"
 ----------------
 MAA1-VP1 geo opt
 ----------------
 Charge =  0 Multiplicity = 1

 SCF Done:  E(RB3LYP) =  -632.403311584     A.U. after    1 cycles

  Exact polarizability: 198.204  13.506 151.569  -4.827  13.379 100.891
 Approx polarizability: 268.763  25.866 253.472  -7.802  33.100 151.076

                      1                      2                      3
                      A                      A                      A
 Frequencies --     19.1925                21.0263                35.8225
 Red. masses --      4.9376                 3.9208                 3.2431
 Frc consts  --      0.0011                 0.0010                 0.0025
 IR Inten    --      2.0705                 0.4303                 0.2121

                      4                      5                      6
                      A                      A                      A
 Frequencies --     45.3403                55.0573                88.7758
 Red. masses --      3.9651                 3.2760                 7.5852
 Frc consts  --      0.0048                 0.0059                 0.0352
 IR Inten    --      0.1871                 0.2356                 0.1586

                      7                      8                      9
                      A                      A                      A
 Frequencies --    105.3446               141.4362               172.9523
 Red. masses --      4.0114                 5.8130                 1.0753
 Frc consts  --      0.0262                 0.0685                 0.0190
 IR Inten    --      0.7768                 4.4461                 1.0924

                     10                     11                     12
                      A                      A                      A
 Frequencies --    213.6073               241.3444               253.8044
 Red. masses --      2.9947                 3.3127                 3.6497
 Frc consts  --      0.0805                 0.1137                 0.1385
 IR Inten    --      0.2239                 0.6343                 3.0334

                     13                     14                     15
                      A                      A                      A
 Frequencies --    296.6802               362.6355               390.4325
 Red. masses --      4.3455                 2.7781                 2.6341
 Frc consts  --      0.2254                 0.2152                 0.2366
 IR Inten    --      5.0718                 2.4605                 0.1862

                     16                     17                     18
                      A                      A                      A
 Frequencies --    455.4773               459.6055               567.6141
 Red. masses --      4.4577                 2.3926                 3.3686
 Frc consts  --      0.5449                 0.2978                 0.6395
 IR Inten    --      3.6568                17.7568                16.6460

                     19                     20                     21
                      A                      A                      A
 Frequencies --    574.7867               585.7140               660.3087
 Red. masses --      2.8818                 3.4142                 1.9307
 Frc consts  --      0.5609                 0.6901                 0.4960
 IR Inten    --      0.2556                21.0828                 1.3859

                     22                     23                     24
                      A                      A                      A
 Frequencies --    682.9280               710.9789               765.4269
 Red. masses --      6.8983                 1.5708                 2.2581
 Frc consts  --      1.8956                 0.4678                 0.7795
 IR Inten    --      0.1776                 4.5193                 3.1606

                     25                     26                     27
                      A                      A                      A
 Frequencies --    798.2568               809.5810               814.4169
 Red. masses --      4.2792                 3.4969                 3.7980
 Frc consts  --      1.6066                 1.3504                 1.4842
 IR Inten    --      7.9939                27.3532                 3.2613

                     28                     29                     30
                      A                      A                      A
 Frequencies --    854.4699               878.3514               936.4334
 Red. masses --      1.7293                 1.2562                 1.4123
 Frc consts  --      0.7439                 0.5710                 0.7297
 IR Inten    --     46.4805                 2.0014                16.2613

                     31                     32                     33
                      A                      A                      A
 Frequencies --    949.8968               959.5422               960.2083
 Red. masses --      1.2071                 1.4990                 1.3902
 Frc consts  --      0.6417                 0.8131                 0.7552
 IR Inten    --     75.3143                28.3013                17.7619

                     34                     35                     36
                      A                      A                      A
 Frequencies --    981.2398              1006.6543              1025.2361
 Red. masses --      1.3137                 1.4202                 1.1342
 Frc consts  --      0.7452                 0.8479                 0.7024
 IR Inten    --      3.4299                 0.0966                16.7950

                     37                     38                     39
                      A                      A                      A
 Frequencies --   1028.6170              1031.5171              1051.6715
 Red. masses --      5.1119                 1.4437                 1.6722
 Frc consts  --      3.1867                 0.9050                 1.0897
 IR Inten    --     41.7583                 6.6456                 0.0233

                     40                     41                     42
                      A                      A                      A
 Frequencies --   1074.3305              1094.3170              1128.2060
 Red. masses --      1.4895                 1.9267                 1.5064
 Frc consts  --      1.0129                 1.3594                 1.1297
 IR Inten    --      2.2843                14.2928                 0.7368

                     43                     44                     45
                      A                      A                      A
 Frequencies --   1197.4718              1232.3325              1252.3116
 Red. masses --      3.9670                 2.2314                 1.4060
 Frc consts  --      3.3515                 1.9966                 1.2992
 IR Inten    --    144.4803                 3.0259                25.2937

                     46                     47                     48
                      A                      A                      A
 Frequencies --   1287.6588              1306.5395              1335.7924
 Red. masses --      6.9864                 3.7356                 1.4139
 Frc consts  --      6.8250                 3.7571                 1.4865
 IR Inten    --      3.2012                70.3014                 2.3052

                     49                     50                     51
                      A                      A                      A
 Frequencies --   1367.4013              1410.7962              1430.7823
 Red. masses --      1.3046                 1.2086                 1.3184
 Frc consts  --      1.4372                 1.4173                 1.5902
 IR Inten    --      1.7169                12.2122               199.4453

                     52                     53                     54
                      A                      A                      A
 Frequencies --   1440.8200              1452.7824              1465.8069
 Red. masses --      1.2314                 1.4163                 1.5363
 Frc consts  --      1.5061                 1.7611                 1.9448
 IR Inten    --     41.7219                82.2580                68.2204

                     55                     56                     57
                      A                      A                      A
 Frequencies --   1481.3542              1496.2871              1533.5575
 Red. masses --      1.0463                 1.0606                 2.1760
 Frc consts  --      1.3528                 1.3991                 3.0152
 IR Inten    --     26.0594                20.6563                 6.2867

                     58                     59                     60
                      A                      A                      A
 Frequencies --   1592.3872              1647.8138              1690.8952
 Red. masses --      5.9881                 5.2784                 4.3137
 Frc consts  --      8.9461                 8.4443                 7.2667
 IR Inten    --     28.6639               118.4072                 1.1467

                     61                     62                     63
                      A                      A                      A
 Frequencies --   1700.3595              1800.7407              3026.7813
 Red. masses --      5.4193                 8.8246                 1.0374
 Frc consts  --      9.2315                16.8596                 5.5997
 IR Inten    --      9.3451               413.9013                18.3176

                     64                     65                     66
                      A                      A                      A
 Frequencies --   3083.0546              3108.0870              3130.1321
 Red. masses --      1.0966                 1.1027                 1.0603
 Frc consts  --      6.1411                 6.2759                 6.1209
 IR Inten    --      9.1234                18.6291                16.3101

                     67                     68                     69
                      A                      A                      A
 Frequencies --   3143.2442              3149.5428              3155.8671
 Red. masses --      1.0710                 1.0785                 1.0781
 Frc consts  --      6.2341                 6.3033                 6.3262
 IR Inten    --     20.5802                38.2173              1661.1907

                     70                     71                     72
                      A                      A                      A
 Frequencies --   3166.7525              3173.8338              3187.5397
 Red. masses --      1.0876                 1.0901                 1.0944
 Frc consts  --      6.4259                 6.4695                 6.5517
 IR Inten    --    196.4769               323.2033                60.9045

                     73                     74                     75
                      A                      A                      A
 Frequencies --   3200.2368              3220.0191              3230.5844
 Red. masses --      1.0934                 1.1156                 1.1154
 Frc consts  --      6.5977                 6.8149                 6.8588
 IR Inten    --     18.1181                 7.8944                 7.0095

 - Thermochemistry -
 -------------------
 Temperature   298.150 Kelvin.  Pressure   1.00000 Atm.
 Atom     1 has atomic number  6 and mass  12.00000

 Molecular mass:   191.09463 amu.
 Principal axes and moments of inertia in atomic units:
                           1         2         3
     Eigenvalues --  1111.318616469.450187050.74979
           X            0.99996  -0.00610   0.00652
           Y            0.00595   0.99973   0.02253
           Z           -0.00665  -0.02249   0.99972
 This molecule is an asymmetric top.
 Rotational symmetry number  1.
 Warning -- assumption of classical behavior for rotation
           may cause significant error
 Rotational temperatures (Kelvin)      0.07794     0.01339     0.01228
 Rotational constants (GHZ):           1.62396     0.27896     0.25596
 Zero-point vibrational energy     570551.8 (Joules/Mol)
                                  136.36514 (Kcal/Mol)
 Warning -- explicit consideration of  20 degrees of freedom as
           vibrations may cause significant error
 Vibrational temperatures:     27.61    30.25    51.54    65.23    79.22
          (Kelvin)            127.73   151.57   203.50   248.84   307.33
                              347.24   365.17   426.86   521.75   561.75
                              655.33   661.27   816.67   826.99   842.71
                              950.04   982.58  1022.94  1101.28  1148.51
                             1164.81  1171.76  1229.39  1263.75  1347.32
                             1366.69  1380.57  1381.53  1411.79  1448.35
                             1475.09  1479.95  1484.12  1513.12  1545.72
                             1574.48  1623.24  1722.89  1773.05  1801.80
                             1852.65  1879.82  1921.91  1967.39  2029.82
                             2058.58  2073.02  2090.23  2108.97  2131.34
                             2152.82  2206.45  2291.09  2370.84  2432.82
                             2446.44  2590.86  4354.86  4435.83  4471.84
                             4503.56  4522.43  4531.49  4540.59  4556.25
                             4566.44  4586.16  4604.43  4632.89  4648.09

 Zero-point correction=                           0.217312 (Hartree/Particle)
 Thermal correction to Energy=                    0.232266
 Thermal correction to Enthalpy=                  0.233210
 Thermal correction to Gibbs Free Energy=         0.171317
 Sum of electronic and zero-point Energies=           -632.186000
 Sum of electronic and thermal Energies=              -632.171046
 Sum of electronic and thermal Enthalpies=            -632.170101
 Sum of electronic and thermal Free Energies=         -632.231995

                     E (Thermal)             CV                S
                      KCal/Mol        Cal/Mol-Kelvin    Cal/Mol-Kelvin
 Total                  145.749             52.578            130.265
 Electronic               0.000              0.000              0.000
 Translational            0.889              2.981             41.648
 Rotational               0.889              2.981             32.294
 Vibrational            143.972             46.616             56.323
 Vibration     1          0.593              1.986              6.716
 Vibration     2          0.593              1.986              6.535
 Vibration     3          0.594              1.982              5.478
 Vibration     4          0.595              1.979              5.011
 Vibration     5          0.596              1.976              4.627
 Vibration     6          0.602              1.957              3.687
 Vibration     7          0.605              1.945              3.353
 Vibration     8          0.615              1.912              2.784
 Vibration     9          0.626              1.876              2.403
 Vibration    10          0.644              1.820              2.013
 Vibration    11          0.658              1.777              1.793
 Vibration    12          0.665              1.756              1.704
 Vibration    13          0.690              1.680              1.436
 Vibration    14          0.736              1.549              1.111
 Vibration    15          0.758              1.491              0.998
 Vibration    16          0.814              1.349              0.779
 Vibration    17          0.818              1.340              0.767
 Vibration    18          0.924              1.101              0.509
 Vibration    19          0.931              1.086              0.495
 Vibration    20          0.943              1.062              0.475

 Optimization completed.
    -- Stationary point found.
 Normal termination of Gaussian 16 at Thu Apr 21 15:10:43 2022.
 Gaussian 16:  ES64L-G16RevA.03 25-Dec-2016

 ----------------------------------------------------------------------
 #P B3LYP/6-311++G(d,p) Geom=Allcheck SCF=Tight EmpiricalDispersion=GD3
 BJ Pop=CHELPG SP IOp(6/33=2)
 ----------------------------------------------------------------------

 Structure from the checkpoint file:  "MAA1-VP1-5.chk"
 ----------------
 MAA1-VP1 geo opt
 ----------------
 Charge =  0 Multiplicity = 1

                         Standard orientation:
 ---------------------------------------------------------------------
 Center     Atomic      Atomic             Coordinates (Angstroms)
 Number     Number       Type             X           Y           Z
 ---------------------------------------------------------------------
      1          6           0        2.338878   -0.763608    1.718450
      2          6           0        2.833947   -0.845165    0.298706
      3          6           0        2.921462   -1.980431   -0.393762
      4          6           0        3.298752    0.441768   -0.343823
      5          8           0        4.418946    0.593191   -0.764663
      6          8           0        2.391126    1.427109   -0.395960
      7          1           0        1.475383   -0.100751    1.809577
      8          1           0        3.123131   -0.362268    2.368386
      9          1           0        2.059069   -1.752057    2.087678
     10          1           0        2.611416   -2.926867    0.037128
     11          1           0        3.321291   -1.995105   -1.400584
     12          1           0        1.468451    1.107386   -0.195560
     13          6           0       -5.081318   -1.176947   -0.272318
     14          6           0       -4.447038   -0.035928    0.006824
     15          6           0       -2.994948    0.183104   -0.016156
     16          6           0       -2.063116   -0.813233   -0.342746
     17          6           0       -0.711043   -0.512031   -0.337263
     18          7           0       -0.230194    0.701765   -0.029341
     19          6           0       -1.109587    1.659680    0.279984
     20          6           0       -2.482181    1.447138    0.300715
     21          1           0       -6.161537   -1.236751   -0.227179
     22          1           0       -4.558746   -2.083894   -0.553678
     23          1           0       -5.036450    0.834768    0.281026
     24          1           0       -2.380186   -1.814992   -0.601390
     25          1           0        0.030018   -1.264334   -0.585022
     26          1           0       -0.694459    2.633455    0.518370
     27          1           0       -3.149440    2.260565    0.559946
 ---------------------------------------------------------------------

 SCF Done:  E(RB3LYP) =  -632.403311584     A.U. after   15 cycles

 The electronic state is 1-A.
 Alpha  occ. eigenvalues --  -19.13555 -19.09028 -14.34922 -10.28694 -10.24019
 Alpha  occ. eigenvalues --  -10.23798 -10.23315 -10.21319 -10.21221 -10.21194
 Alpha  occ. eigenvalues --  -10.20451 -10.19484 -10.17611 -10.17312  -1.08051
 Alpha  occ. eigenvalues --   -1.00083  -0.98091  -0.86394  -0.81127  -0.79750
 Alpha  occ. eigenvalues --   -0.78861  -0.70116  -0.67996  -0.66494  -0.62690
 Alpha  occ. eigenvalues --   -0.60428  -0.58237  -0.54772  -0.52638  -0.50064
 Alpha  occ. eigenvalues --   -0.49798  -0.47966  -0.46166  -0.45885  -0.45074
 Alpha  occ. eigenvalues --   -0.44367  -0.43757  -0.42891  -0.41445  -0.40223
 Alpha  occ. eigenvalues --   -0.39912  -0.38678  -0.37922  -0.36174  -0.35889
 Alpha  occ. eigenvalues --   -0.30586  -0.29993  -0.29854  -0.28221  -0.27952
 Alpha  occ. eigenvalues --   -0.25093
 Alpha virt. eigenvalues --   -0.09149  -0.05063  -0.02570  -0.01911  -0.00900
 Alpha virt. eigenvalues --   -0.00475  -0.00149   0.00868   0.01323   0.02181
 Alpha virt. eigenvalues --    0.02700   0.02947   0.03775   0.03971   0.04514

 Mulliken charges:
               1
     1  C   -0.692187
     2  C    0.657891
     3  C   -0.413619
     4  C   -0.241703
     5  O   -0.256826
     6  O   -0.337945
     7  H    0.147701
     8  H    0.174902
     9  H    0.134505
    10  H    0.125506
    11  H    0.174472
    12  H    0.586845
    13  C   -0.326457
    14  C   -0.758423
    15  C    0.990158
    16  C    0.201389
    17  C   -1.155765
    18  N   -0.116524
    19  C   -0.490469
    20  C    0.406016
    21  H    0.181874
    22  H    0.133037
    23  H    0.150405
    24  H    0.140699
    25  H    0.226463
    26  H    0.155992
    27  H    0.202063
 Sum of Mulliken charges =  -0.00000

 Dipole moment (field-independent basis, Debye):
    X=             -8.5749    Y=             -2.4308    Z=              1.9284  Tot=              9.1190
 Quadrupole moment (field-independent basis, Debye-Ang):
   XX=            -98.1347   YY=            -78.4639   ZZ=            -86.0575
   XY=             -9.0736   XZ=              7.2064   YZ=              5.1338

 ESP charges:
               1
     1  C    0.095184
     2  C   -0.074144
     3  C   -0.357445
     4  C    0.857034
     5  O   -0.600582
     6  O   -0.595019
     7  H   -0.031575
     8  H   -0.001645
     9  H   -0.007378
    10  H    0.156086
    11  H    0.130228
    12  H    0.234299
    13  C   -0.253542
    14  C   -0.216893
    15  C    0.380547
    16  C   -0.282925
    17  C    0.122115
    18  N   -0.201958
    19  C    0.160244
    20  C   -0.338093
    21  H    0.137235
    22  H    0.131232
    23  H    0.135714
    24  H    0.144902
    25  H    0.051309
    26  H    0.090055
    27  H    0.135013
 Sum of ESP charges =  -0.00000

 Normal termination of Gaussian 16 at Thu Apr 21 15:18:28 2022.
