 Gaussian 16, Revision A.03,

 ---------------------------------------------------------------------
 #n B3LYP/6-311++G(d,p) Opt freq EmpiricalDispersion=GD3BJ IOp(6/33=2)
 ---------------------------------------------------------------------

 ----------------
 MAA1-VP1 geo opt
 ----------------
 Symbolic Z-matrix:
 Charge =  0 Multiplicity = 1

 SCF Done:  E(RB3LYP) =  -632.349960882     A.U. after   16 cycles
 SCF Done:  E(RB3LYP) =  -632.377093983     A.U. after   13 cycles
 SCF Done:  E(RB3LYP) =  -632.386728854     A.U. after   14 cycles
 SCF Done:  E(RB3LYP) =  -632.386947558     A.U. after   13 cycles
 SCF Done:  E(RB3LYP) =  -632.387388393     A.U. after   12 cycles
 SCF Done:  E(RB3LYP) =  -632.387891794     A.U. after   12 cycles
 SCF Done:  E(RB3LYP) =  -632.388107518     A.U. after   12 cycles
 SCF Done:  E(RB3LYP) =  -632.388382180     A.U. after   13 cycles
 SCF Done:  E(RB3LYP) =  -632.388439609     A.U. after   12 cycles
 SCF Done:  E(RB3LYP) =  -632.388457405     A.U. after   11 cycles
 SCF Done:  E(RB3LYP) =  -632.403250491     A.U. after   10 cycles
 SCF Done:  E(RB3LYP) =  -632.403250692     A.U. after    9 cycles
 SCF Done:  E(RB3LYP) =  -632.403251346     A.U. after    9 cycles
 SCF Done:  E(RB3LYP) =  -632.403251888     A.U. after   10 cycles
 SCF Done:  E(RB3LYP) =  -632.403252307     A.U. after   10 cycles
 SCF Done:  E(RB3LYP) =  -632.403252687     A.U. after   10 cycles
 SCF Done:  E(RB3LYP) =  -632.403252887     A.U. after    9 cycles
 SCF Done:  E(RB3LYP) =  -632.403252922     A.U. after    8 cycles
 Optimization completed.
    -- Stationary point found.
 Normal termination of Gaussian 16 at Thu Apr 21 11:22:37 2022.

 ----------------------------------------------------------------------
 #N Geom=AllCheck Guess=TCheck SCRF=Check Test GenChk RB3LYP/6-311++G(d
 ,p) Freq
 ----------------------------------------------------------------------

 Structure from the checkpoint file:  "MAA1-VP1-2.chk"
 ----------------
 MAA1-VP1 geo opt
 ----------------
 Charge =  0 Multiplicity = 1

 SCF Done:  E(RB3LYP) =  -632.403252922     A.U. after    1 cycles

  Exact polarizability: 208.836  -4.062 141.423  10.879 -13.135 101.451
 Approx polarizability: 287.284 -10.247 232.218  20.439 -32.778 152.912

                      1                      2                      3
                      A                      A                      A
 Frequencies --     15.5800                22.3958                35.9196
 Red. masses --      4.2081                 4.8119                 2.8364
 Frc consts  --      0.0006                 0.0014                 0.0022
 IR Inten    --      0.4034                 1.7109                 0.1987

                      4                      5                      6
                      A                      A                      A
 Frequencies --     44.5575                54.7159                87.3891
 Red. masses --      4.7183                 3.2690                 7.7358
 Frc consts  --      0.0055                 0.0058                 0.0348
 IR Inten    --      0.1699                 0.2485                 0.1454

                      7                      8                      9
                      A                      A                      A
 Frequencies --    104.1523               142.8719               173.5509
 Red. masses --      3.8958                 5.7769                 1.0791
 Frc consts  --      0.0249                 0.0695                 0.0191
 IR Inten    --      0.7022                 4.4322                 1.0998

                     10                     11                     12
                      A                      A                      A
 Frequencies --    213.2724               241.8030               251.2058
 Red. masses --      2.9868                 3.2638                 3.7128
 Frc consts  --      0.0800                 0.1124                 0.1380
 IR Inten    --      0.1749                 0.1130                 3.5808

                     13                     14                     15
                      A                      A                      A
 Frequencies --    295.3567               361.8959               391.1988
 Red. masses --      4.3452                 2.7766                 2.6394
 Frc consts  --      0.2233                 0.2143                 0.2380
 IR Inten    --      5.2295                 2.5280                 0.0479

                     16                     17                     18
                      A                      A                      A
 Frequencies --    455.2707               460.1101               568.3631
 Red. masses --      3.9539                 2.5626                 3.3674
 Frc consts  --      0.4829                 0.3196                 0.6409
 IR Inten    --      4.9754                16.8939                16.3745

                     19                     20                     21
                      A                      A                      A
 Frequencies --    573.8519               585.5933               660.2136
 Red. masses --      2.8991                 3.3684                 1.9354
 Frc consts  --      0.5625                 0.6806                 0.4970
 IR Inten    --      0.8257                22.2601                 1.3236

                     22                     23                     24
                      A                      A                      A
 Frequencies --    682.9319               711.5837               765.0606
 Red. masses --      6.8992                 1.5750                 2.2655
 Frc consts  --      1.8959                 0.4699                 0.7813
 IR Inten    --      0.3492                 4.3459                 3.0402

                     25                     26                     27
                      A                      A                      A
 Frequencies --    798.0911               809.3868               814.3069
 Red. masses --      4.2421                 3.4619                 3.8731
 Frc consts  --      1.5920                 1.3362                 1.5132
 IR Inten    --      8.2303                26.8950                 3.6292

                     28                     29                     30
                      A                      A                      A
 Frequencies --    851.9212               880.5418               936.2057
 Red. masses --      1.6925                 1.2753                 1.4112
 Frc consts  --      0.7237                 0.5826                 0.7287
 IR Inten    --     42.1487                 6.3505                17.5623

                     31                     32                     33
                      A                      A                      A
 Frequencies --    949.8180               959.4467               960.2033
 Red. masses --      1.2180                 1.4986                 1.3766
 Frc consts  --      0.6474                 0.8128                 0.7478
 IR Inten    --     72.2382                27.3608                20.3084

                     34                     35                     36
                      A                      A                      A
 Frequencies --    980.8364              1005.6551              1025.1558
 Red. masses --      1.3112                 1.4206                 1.1345
 Frc consts  --      0.7432                 0.8465                 0.7025
 IR Inten    --      3.5350                 0.0827                16.8194

                     37                     38                     39
                      A                      A                      A
 Frequencies --   1028.7311              1031.0999              1051.9736
 Red. masses --      5.4631                 1.4171                 1.6676
 Frc consts  --      3.4064                 0.8877                 1.0873
 IR Inten    --     40.0239                 6.4996                 0.2907

                     40                     41                     42
                      A                      A                      A
 Frequencies --   1073.9947              1094.1723              1128.2733
 Red. masses --      1.4903                 1.9411                 1.5030
 Frc consts  --      1.0128                 1.3692                 1.1273
 IR Inten    --      2.3611                14.8005                 0.0563

                     43                     44                     45
                      A                      A                      A
 Frequencies --   1197.4434              1231.9767              1252.1857
 Red. masses --      3.9645                 2.2211                 1.4063
 Frc consts  --      3.3493                 1.9862                 1.2992
 IR Inten    --    147.9852                 4.8791                23.0468

                     46                     47                     48
                      A                      A                      A
 Frequencies --   1287.9234              1306.5992              1335.8226
 Red. masses --      7.0856                 3.7432                 1.4127
 Frc consts  --      6.9248                 3.7651                 1.4853
 IR Inten    --      9.4167                76.5459                 0.1877

                     49                     50                     51
                      A                      A                      A
 Frequencies --   1367.1219              1410.3266              1431.4320
 Red. masses --      1.3042                 1.2100                 1.3118
 Frc consts  --      1.4362                 1.4180                 1.5836
 IR Inten    --      1.4147                10.8910               202.5857

                     52                     53                     54
                      A                      A                      A
 Frequencies --   1441.0440              1451.9202              1466.2101
 Red. masses --      1.2361                 1.4237                 1.5260
 Frc consts  --      1.5123                 1.7682                 1.9328
 IR Inten    --     50.8252                94.9702                43.7636

                     55                     56                     57
                      A                      A                      A
 Frequencies --   1480.9139              1496.1743              1533.4050
 Red. masses --      1.0462                 1.0605                 2.1764
 Frc consts  --      1.3519                 1.3988                 3.0151
 IR Inten    --     24.5988                20.3100                10.5271

                     58                     59                     60
                      A                      A                      A
 Frequencies --   1592.3474              1647.7669              1690.8897
 Red. masses --      6.0083                 5.2798                 4.3143
 Frc consts  --      8.9759                 8.4461                 7.2677
 IR Inten    --     38.4126               116.3718                 0.8436

                     61                     62                     63
                      A                      A                      A
 Frequencies --   1700.5682              1801.0491              3026.5750
 Red. masses --      5.4245                 8.8182                 1.0373
 Frc consts  --      9.2427                16.8532                 5.5982
 IR Inten    --      9.3627               415.4715                18.1927

                     64                     65                     66
                      A                      A                      A
 Frequencies --   3082.7435              3107.7966              3130.1108
 Red. masses --      1.0968                 1.1027                 1.0603
 Frc consts  --      6.1409                 6.2750                 6.1209
 IR Inten    --      9.3132                19.4489                17.6026

                     67                     68                     69
                      A                      A                      A
 Frequencies --   3143.2050              3149.4612              3155.3046
 Red. masses --      1.0710                 1.0785                 1.0777
 Frc consts  --      6.2341                 6.3028                 6.3219
 IR Inten    --     18.0027                47.2517              1756.1506

                     70                     71                     72
                      A                      A                      A
 Frequencies --   3167.8077              3172.1712              3187.5957
 Red. masses --      1.0880                 1.0898                 1.0947
 Frc consts  --      6.4330                 6.4609                 6.5535
 IR Inten    --     26.2182               410.8982                68.9911

                     73                     74                     75
                      A                      A                      A
 Frequencies --   3200.5982              3219.8871              3230.5870
 Red. masses --      1.0934                 1.1156                 1.1154
 Frc consts  --      6.5989                 6.8144                 6.8588
 IR Inten    --     14.7651                 7.9696                 6.8645

 - Thermochemistry -
 -------------------
 Temperature   298.150 Kelvin.  Pressure   1.00000 Atm.
 Atom     1 has atomic number  6 and mass  12.00000

 Molecular mass:   191.09463 amu.
 Principal axes and moments of inertia in atomic units:
                           1         2         3
     Eigenvalues --  1008.710156678.965737173.63293
           X            0.99993  -0.01130  -0.00413
           Y            0.01119   0.99956  -0.02758
           Z            0.00444   0.02753   0.99961
 This molecule is an asymmetric top.
 Rotational symmetry number  1.
 Warning -- assumption of classical behavior for rotation
           may cause significant error
 Rotational temperatures (Kelvin)      0.08587     0.01297     0.01207
 Rotational constants (GHZ):           1.78916     0.27021     0.25158
 Zero-point vibrational energy     570472.9 (Joules/Mol)
                                  136.34630 (Kcal/Mol)
 Warning -- explicit consideration of  20 degrees of freedom as
           vibrations may cause significant error
 Vibrational temperatures:     22.42    32.22    51.68    64.11    78.72
          (Kelvin)            125.73   149.85   205.56   249.70   306.85
                              347.90   361.43   424.95   520.69   562.85
                              655.03   662.00   817.75   825.64   842.54
                              949.90   982.59  1023.81  1100.75  1148.28
                             1164.53  1171.61  1225.72  1266.90  1346.99
                             1366.58  1380.43  1381.52  1411.20  1446.91
                             1474.97  1480.11  1483.52  1513.56  1545.24
                             1574.27  1623.33  1722.85  1772.54  1801.62
                             1853.03  1879.90  1921.95  1966.98  2029.15
                             2059.51  2073.34  2088.99  2109.55  2130.70
                             2152.66  2206.23  2291.03  2370.77  2432.81
                             2446.74  2591.31  4354.57  4435.38  4471.43
                             4503.53  4522.37  4531.37  4539.78  4557.77
                             4564.05  4586.24  4604.95  4632.70  4648.09

 Zero-point correction=                           0.217282 (Hartree/Particle)
 Thermal correction to Energy=                    0.232250
 Thermal correction to Enthalpy=                  0.233194
 Thermal correction to Gibbs Free Energy=         0.171141
 Sum of electronic and zero-point Energies=           -632.185971
 Sum of electronic and thermal Energies=              -632.171003
 Sum of electronic and thermal Enthalpies=            -632.170059
 Sum of electronic and thermal Free Energies=         -632.232112

                     E (Thermal)             CV                S
                      KCal/Mol        Cal/Mol-Kelvin    Cal/Mol-Kelvin
 Total                  145.739             52.589            130.602
 Electronic               0.000              0.000              0.000
 Translational            0.889              2.981             41.648
 Rotational               0.889              2.981             32.247
 Vibrational            143.962             46.627             56.707
 Vibration     1          0.593              1.986              7.130
 Vibration     2          0.593              1.985              6.410
 Vibration     3          0.594              1.982              5.472
 Vibration     4          0.595              1.980              5.045
 Vibration     5          0.596              1.976              4.639
 Vibration     6          0.601              1.958              3.718
 Vibration     7          0.605              1.946              3.375
 Vibration     8          0.616              1.910              2.765
 Vibration     9          0.627              1.875              2.397
 Vibration    10          0.644              1.821              2.015
 Vibration    11          0.658              1.776              1.790
 Vibration    12          0.663              1.761              1.722
 Vibration    13          0.690              1.682              1.443
 Vibration    14          0.736              1.551              1.114
 Vibration    15          0.759              1.489              0.996
 Vibration    16          0.814              1.349              0.780
 Vibration    17          0.818              1.339              0.766
 Vibration    18          0.924              1.100              0.507
 Vibration    19          0.930              1.088              0.497
 Vibration    20          0.943              1.063              0.475

                           ! Non-Optimized Parameters !
 Normal termination of Gaussian 16 at Thu Apr 21 11:25:48 2022.
 Gaussian 16:  ES64L-G16RevA.03 25-Dec-2016

 ----------------------------------------------------------------------
 #P B3LYP/6-311++G(d,p) Geom=Allcheck SCF=Tight EmpiricalDispersion=GD3
 BJ Pop=CHELPG SP IOp(6/33=2)
 ----------------------------------------------------------------------

 Structure from the checkpoint file:  "MAA1-VP1-2.chk"
 ----------------
 MAA1-VP1 geo opt
 ----------------
 Charge =  0 Multiplicity = 1

                         Standard orientation:
 ---------------------------------------------------------------------
 Center     Atomic      Atomic             Coordinates (Angstroms)
 Number     Number       Type             X           Y           Z
 ---------------------------------------------------------------------
      1          6           0       -2.389631    0.771850    1.700368
      2          6           0       -2.927291    0.742128    0.294156
      3          6           0       -3.131229    1.830691   -0.446978
      4          6           0       -3.295299   -0.609788   -0.273143
      5          8           0       -4.410640   -0.879915   -0.644401
      6          8           0       -2.304251   -1.511668   -0.315850
      7          1           0       -3.120027    0.339804    2.392022
      8          1           0       -2.183824    1.796987    2.014067
      9          1           0       -1.471559    0.187608    1.795762
     10          1           0       -2.893121    2.819995   -0.070015
     11          1           0       -3.557181    1.762364   -1.440800
     12          1           0       -1.408679   -1.101988   -0.161234
     13          6           0        5.434756   -0.078369    0.121571
     14          6           0        4.360396    0.650870   -0.188422
     15          6           0        2.960806    0.208799   -0.135655
     16          6           0        2.566794   -1.081602    0.247439
     17          6           0        1.219777   -1.405490    0.266241
     18          7           0        0.250228   -0.540164   -0.063785
     19          6           0        0.614729    0.692010   -0.434031
     20          6           0        1.940359    1.103226   -0.482501
     21          1           0        6.430151    0.341689    0.049327
     22          1           0        5.367968   -1.107617    0.454728
     23          1           0        4.503394    1.677354   -0.514920
     24          1           0        3.295034   -1.831599    0.526724
     25          1           0        0.893343   -2.398991    0.555360
     26          1           0       -0.192146    1.367839   -0.696609
     27          1           0        2.179190    2.114416   -0.790180
 ---------------------------------------------------------------------

 SCF Done:  E(RB3LYP) =  -632.403252922     A.U. after   15 cycles

 The electronic state is 1-A.
 Alpha  occ. eigenvalues --  -19.13556 -19.09031 -14.34922 -10.28693 -10.23965
 Alpha  occ. eigenvalues --  -10.23854 -10.23316 -10.21318 -10.21220 -10.21195
 Alpha  occ. eigenvalues --  -10.20450 -10.19481 -10.17612 -10.17305  -1.08053
 Alpha  occ. eigenvalues --   -1.00086  -0.98092  -0.86395  -0.81126  -0.79749
 Alpha  occ. eigenvalues --   -0.78866  -0.70116  -0.67996  -0.66492  -0.62688
 Alpha  occ. eigenvalues --   -0.60433  -0.58249  -0.54725  -0.52666  -0.50084
 Alpha  occ. eigenvalues --   -0.49792  -0.47978  -0.46086  -0.45885  -0.45108
 Alpha  occ. eigenvalues --   -0.44382  -0.43760  -0.42924  -0.41453  -0.40161
 Alpha  occ. eigenvalues --   -0.39911  -0.38703  -0.37922  -0.36174  -0.35900
 Alpha  occ. eigenvalues --   -0.30581  -0.30000  -0.29855  -0.28216  -0.27952
 Alpha  occ. eigenvalues --   -0.25090
 Alpha virt. eigenvalues --   -0.09150  -0.05062  -0.02542  -0.01875  -0.00875
 Alpha virt. eigenvalues --   -0.00534  -0.00188   0.00975   0.01197   0.02260
 Alpha virt. eigenvalues --    0.02940   0.02981   0.03625   0.03849   0.04298

 Mulliken charges:
               1
     1  C   -0.695031
     2  C    0.653551
     3  C   -0.409889
     4  C   -0.242783
     5  O   -0.256721
     6  O   -0.338844
     7  H    0.175751
     8  H    0.133927
     9  H    0.150816
    10  H    0.125301
    11  H    0.174895
    12  H    0.602872
    13  C   -0.440695
    14  C   -0.616163
    15  C    1.103648
    16  C   -0.244990
    17  C   -0.474235
    18  N   -0.137247
    19  C   -0.196850
    20  C   -0.209650
    21  H    0.176148
    22  H    0.122367
    23  H    0.146752
    24  H    0.140094
    25  H    0.156975
    26  H    0.208579
    27  H    0.191421
 Sum of Mulliken charges =  -0.00000

 Dipole moment (field-independent basis, Debye):
    X=              8.4527    Y=              3.0189    Z=              1.6438  Tot=              9.1249
 Quadrupole moment (field-independent basis, Debye-Ang):
   XX=            -96.5703   YY=            -80.4326   ZZ=            -85.3571
   XY=            -11.5525   XZ=             -5.7385   YZ=             -5.4982

 ESP charges:
               1
     1  C    0.087384
     2  C   -0.069541
     3  C   -0.358742
     4  C    0.849964
     5  O   -0.598127
     6  O   -0.600525
     7  H    0.001937
     8  H   -0.008134
     9  H   -0.029502
    10  H    0.158474
    11  H    0.128860
    12  H    0.253151
    13  C   -0.217301
    14  C   -0.231603
    15  C    0.376884
    16  C   -0.301334
    17  C    0.141293
    18  N   -0.235454
    19  C    0.178736
    20  C   -0.308769
    21  H    0.124333
    22  H    0.125090
    23  H    0.132916
    24  H    0.136716
    25  H    0.091633
    26  H    0.038943
    27  H    0.132717
 Sum of ESP charges =  -0.00000

 Normal termination of Gaussian 16 at Thu Apr 21 11:33:41 2022.
