 Gaussian 16, Revision A.03,

 ---------------------------------------------------------------------
 #n B3LYP/6-311++G(d,p) Opt freq EmpiricalDispersion=GD3BJ IOp(6/33=2)
 ---------------------------------------------------------------------

 ----------------
 MAA1-VP1 geo opt
 ----------------
 Symbolic Z-matrix:
 Charge =  0 Multiplicity = 1

 SCF Done:  E(RB3LYP) =  -632.357109895     A.U. after   16 cycles
 SCF Done:  E(RB3LYP) =  -632.382469329     A.U. after   13 cycles
 SCF Done:  E(RB3LYP) =  -632.390131115     A.U. after   16 cycles
 SCF Done:  E(RB3LYP) =  -632.392006769     A.U. after   17 cycles
 SCF Done:  E(RB3LYP) =  -632.392463339     A.U. after   15 cycles
 SCF Done:  E(RB3LYP) =  -632.390423609     A.U. after   15 cycles
 SCF Done:  E(RB3LYP) =  -632.391775927     A.U. after   16 cycles
 SCF Done:  E(RB3LYP) =  -632.393053908     A.U. after   12 cycles
 SCF Done:  E(RB3LYP) =  -632.393324070     A.U. after   13 cycles
 SCF Done:  E(RB3LYP) =  -632.393560450     A.U. after   13 cycles
 SCF Done:  E(RB3LYP) =  -632.403252233     A.U. after   10 cycles
 SCF Done:  E(RB3LYP) =  -632.403252492     A.U. after    9 cycles
 SCF Done:  E(RB3LYP) =  -632.403252628     A.U. after    8 cycles
 SCF Done:  E(RB3LYP) =  -632.403252685     A.U. after    8 cycles
 SCF Done:  E(RB3LYP) =  -632.403252781     A.U. after    8 cycles
 SCF Done:  E(RB3LYP) =  -632.403252881     A.U. after    9 cycles
 SCF Done:  E(RB3LYP) =  -632.403252956     A.U. after    9 cycles
 SCF Done:  E(RB3LYP) =  -632.403252980     A.U. after    8 cycles
 Optimization completed.
    -- Stationary point found.
 Normal termination of Gaussian 16 at Thu Apr 21 11:18:14 2022.

 ----------------------------------------------------------------------
 #N Geom=AllCheck Guess=TCheck SCRF=Check Test GenChk RB3LYP/6-311++G(d
 ,p) Freq
 ----------------------------------------------------------------------

 Structure from the checkpoint file:  "MAA1-VP1-4.chk"
 ----------------
 MAA1-VP1 geo opt
 ----------------
 Charge =  0 Multiplicity = 1

 SCF Done:  E(RB3LYP) =  -632.403252980     A.U. after    1 cycles

  Exact polarizability: 208.845   4.084 141.433 -10.829 -13.118 101.434
 Approx polarizability: 287.299  10.287 232.242 -20.351 -32.743 152.875

                      1                      2                      3
                      A                      A                      A
 Frequencies --     15.6935                22.4468                35.9802
 Red. masses --      4.2255                 4.7971                 2.8374
 Frc consts  --      0.0006                 0.0014                 0.0022
 IR Inten    --      0.4098                 1.7060                 0.1955

                      4                      5                      6
                      A                      A                      A
 Frequencies --     44.5558                54.7762                87.3984
 Red. masses --      4.7156                 3.2669                 7.7366
 Frc consts  --      0.0055                 0.0058                 0.0348
 IR Inten    --      0.1689                 0.2498                 0.1451

                      7                      8                      9
                      A                      A                      A
 Frequencies --    104.1764               142.8794               173.5334
 Red. masses --      3.8924                 5.7761                 1.0792
 Frc consts  --      0.0249                 0.0695                 0.0191
 IR Inten    --      0.7034                 4.4361                 1.0992

                     10                     11                     12
                      A                      A                      A
 Frequencies --    213.3094               241.8145               251.2284
 Red. masses --      2.9864                 3.2644                 3.7131
 Frc consts  --      0.0801                 0.1125                 0.1381
 IR Inten    --      0.1743                 0.1171                 3.5767

                     13                     14                     15
                      A                      A                      A
 Frequencies --    295.4206               361.9264               391.2092
 Red. masses --      4.3443                 2.7768                 2.6393
 Frc consts  --      0.2234                 0.2143                 0.2380
 IR Inten    --      5.2295                 2.5290                 0.0477

                     16                     17                     18
                      A                      A                      A
 Frequencies --    455.5651               459.8326               568.3703
 Red. masses --      4.1136                 2.4996                 3.3676
 Frc consts  --      0.5030                 0.3114                 0.6410
 IR Inten    --      4.4942                17.3677                16.4059

                     19                     20                     21
                      A                      A                      A
 Frequencies --    573.8473               585.5960               660.2280
 Red. masses --      2.8987                 3.3702                 1.9354
 Frc consts  --      0.5624                 0.6809                 0.4971
 IR Inten    --      0.8233                22.2432                 1.3297

                     22                     23                     24
                      A                      A                      A
 Frequencies --    682.9317               711.5706               765.0806
 Red. masses --      6.8984                 1.5749                 2.2652
 Frc consts  --      1.8956                 0.4698                 0.7812
 IR Inten    --      0.3510                 4.3541                 3.0180

                     25                     26                     27
                      A                      A                      A
 Frequencies --    798.1010               809.3945               814.3350
 Red. masses --      4.2433                 3.4634                 3.8693
 Frc consts  --      1.5925                 1.3368                 1.5118
 IR Inten    --      8.1963                26.9371                 3.6313

                     28                     29                     30
                      A                      A                      A
 Frequencies --    851.9340               880.5488               936.2377
 Red. masses --      1.6928                 1.2754                 1.4117
 Frc consts  --      0.7239                 0.5827                 0.7291
 IR Inten    --     42.1247                 6.3767                17.7352

                     31                     32                     33
                      A                      A                      A
 Frequencies --    949.9528               959.5051               960.2295
 Red. masses --      1.2209                 1.4866                 1.3828
 Frc consts  --      0.6491                 0.8064                 0.7512
 IR Inten    --     71.8505                29.9624                17.9325

                     34                     35                     36
                      A                      A                      A
 Frequencies --    980.8401              1005.6611              1025.1718
 Red. masses --      1.3112                 1.4205                 1.1342
 Frc consts  --      0.7432                 0.8465                 0.7023
 IR Inten    --      3.5727                 0.0841                16.8298

                     37                     38                     39
                      A                      A                      A
 Frequencies --   1028.7270              1031.0941              1051.9802
 Red. masses --      5.4706                 1.4170                 1.6677
 Frc consts  --      3.4110                 0.8876                 1.0874
 IR Inten    --     40.0119                 6.5086                 0.2855

                     40                     41                     42
                      A                      A                      A
 Frequencies --   1073.9917              1094.1699              1128.2799
 Red. masses --      1.4903                 1.9412                 1.5031
 Frc consts  --      1.0128                 1.3692                 1.1274
 IR Inten    --      2.3606                14.8018                 0.0586

                     43                     44                     45
                      A                      A                      A
 Frequencies --   1197.4825              1231.9841              1252.1859
 Red. masses --      3.9645                 2.2207                 1.4065
 Frc consts  --      3.3495                 1.9859                 1.2993
 IR Inten    --    147.9957                 4.8802                23.0216

                     46                     47                     48
                      A                      A                      A
 Frequencies --   1287.9151              1306.6338              1335.8287
 Red. masses --      7.0869                 3.7426                 1.4128
 Frc consts  --      6.9260                 3.7647                 1.4853
 IR Inten    --      9.4308                76.5588                 0.1846

                     49                     50                     51
                      A                      A                      A
 Frequencies --   1367.1264              1410.3497              1431.4246
 Red. masses --      1.3042                 1.2100                 1.3118
 Frc consts  --      1.4361                 1.4180                 1.5836
 IR Inten    --      1.4170                10.8915               202.6190

                     52                     53                     54
                      A                      A                      A
 Frequencies --   1441.0261              1451.9212              1466.2070
 Red. masses --      1.2362                 1.4240                 1.5258
 Frc consts  --      1.5124                 1.7687                 1.9325
 IR Inten    --     50.9134                94.9961                43.6812

                     55                     56                     57
                      A                      A                      A
 Frequencies --   1480.9169              1496.1783              1533.4103
 Red. masses --      1.0462                 1.0605                 2.1763
 Frc consts  --      1.3519                 1.3988                 3.0150
 IR Inten    --     24.5806                20.2998                10.5146

                     58                     59                     60
                      A                      A                      A
 Frequencies --   1592.3480              1647.7603              1690.8874
 Red. masses --      6.0079                 5.2796                 4.3140
 Frc consts  --      8.9753                 8.4457                 7.2671
 IR Inten    --     38.4160               116.3888                 0.8412

                     61                     62                     63
                      A                      A                      A
 Frequencies --   1700.4383              1800.9810              3026.5457
 Red. masses --      5.4226                 8.8186                 1.0373
 Frc consts  --      9.2381                16.8527                 5.5981
 IR Inten    --      9.3628               415.4347                18.1990

                     64                     65                     66
                      A                      A                      A
 Frequencies --   3082.6890              3107.7426              3130.0558
 Red. masses --      1.0968                 1.1027                 1.0604
 Frc consts  --      6.1407                 6.2747                 6.1207
 IR Inten    --      9.2974                19.5323                17.9850

                     67                     68                     69
                      A                      A                      A
 Frequencies --   3143.2008              3149.4567              3154.9451
 Red. masses --      1.0710                 1.0784                 1.0777
 Frc consts  --      6.2343                 6.3023                 6.3201
 IR Inten    --     18.5237                52.2500              1768.9507

                     70                     71                     72
                      A                      A                      A
 Frequencies --   3167.7803              3172.0816              3187.5580
 Red. masses --      1.0881                 1.0898                 1.0947
 Frc consts  --      6.4330                 6.4610                 6.5535
 IR Inten    --     24.6246               396.6687                66.9536

                     73                     74                     75
                      A                      A                      A
 Frequencies --   3200.5997              3219.8972              3230.5942
 Red. masses --      1.0934                 1.1156                 1.1154
 Frc consts  --      6.5989                 6.8144                 6.8588
 IR Inten    --     14.4274                 7.9303                 6.8647

 - Thermochemistry -
 -------------------
 Temperature   298.150 Kelvin.  Pressure   1.00000 Atm.
 Atom     1 has atomic number  6 and mass  12.00000

 Molecular mass:   191.09463 amu.
 Principal axes and moments of inertia in atomic units:
                           1         2         3
     Eigenvalues --  1008.693596679.122697173.67781
           X            0.99993   0.01131   0.00415
           Y           -0.01119   0.99956  -0.02755
           Z           -0.00446   0.02750   0.99961
 This molecule is an asymmetric top.
 Rotational symmetry number  1.
 Warning -- assumption of classical behavior for rotation
           may cause significant error
 Rotational temperatures (Kelvin)      0.08587     0.01297     0.01207
 Rotational constants (GHZ):           1.78919     0.27021     0.25158
 Zero-point vibrational energy     570473.2 (Joules/Mol)
                                  136.34638 (Kcal/Mol)
 Warning -- explicit consideration of  20 degrees of freedom as
           vibrations may cause significant error
 Vibrational temperatures:     22.58    32.30    51.77    64.11    78.81
          (Kelvin)            125.75   149.89   205.57   249.68   306.90
                              347.92   361.46   425.04   520.73   562.86
                              655.46   661.60   817.76   825.64   842.54
                              949.92   982.59  1023.79  1100.78  1148.29
                             1164.54  1171.65  1225.74  1266.91  1347.04
                             1366.77  1380.51  1381.56  1411.21  1446.92
                             1474.99  1480.11  1483.51  1513.56  1545.23
                             1574.27  1623.34  1722.91  1772.55  1801.62
                             1853.02  1879.95  1921.96  1966.99  2029.18
                             2059.50  2073.32  2088.99  2109.54  2130.71
                             2152.67  2206.24  2291.03  2370.76  2432.81
                             2446.55  2591.21  4354.52  4435.30  4471.35
                             4503.45  4522.36  4531.37  4539.26  4557.73
                             4563.92  4586.18  4604.95  4632.71  4648.10

 Zero-point correction=                           0.217282 (Hartree/Particle)
 Thermal correction to Energy=                    0.232249
 Thermal correction to Enthalpy=                  0.233194
 Thermal correction to Gibbs Free Energy=         0.171153
 Sum of electronic and zero-point Energies=           -632.185971
 Sum of electronic and thermal Energies=              -632.171004
 Sum of electronic and thermal Enthalpies=            -632.170059
 Sum of electronic and thermal Free Energies=         -632.232100

                     E (Thermal)             CV                S
                      KCal/Mol        Cal/Mol-Kelvin    Cal/Mol-Kelvin
 Total                  145.739             52.588            130.576
 Electronic               0.000              0.000              0.000
 Translational            0.889              2.981             41.648
 Rotational               0.889              2.981             32.247
 Vibrational            143.961             46.626             56.680
 Vibration     1          0.593              1.986              7.116
 Vibration     2          0.593              1.985              6.405
 Vibration     3          0.594              1.982              5.469
 Vibration     4          0.595              1.980              5.045
 Vibration     5          0.596              1.976              4.637
 Vibration     6          0.601              1.958              3.717
 Vibration     7          0.605              1.946              3.375
 Vibration     8          0.616              1.910              2.765
 Vibration     9          0.627              1.875              2.397
 Vibration    10          0.644              1.821              2.015
 Vibration    11          0.658              1.776              1.789
 Vibration    12          0.663              1.761              1.722
 Vibration    13          0.690              1.682              1.443
 Vibration    14          0.736              1.551              1.114
 Vibration    15          0.759              1.489              0.996
 Vibration    16          0.814              1.349              0.779
 Vibration    17          0.818              1.339              0.767
 Vibration    18          0.924              1.100              0.507
 Vibration    19          0.930              1.088              0.497
 Vibration    20          0.943              1.063              0.475

 Optimization completed.
    -- Stationary point found.
 Normal termination of Gaussian 16 at Thu Apr 21 11:21:43 2022.
 Gaussian 16:  ES64L-G16RevA.03 25-Dec-2016

 ----------------------------------------------------------------------
 #P B3LYP/6-311++G(d,p) Geom=Allcheck SCF=Tight EmpiricalDispersion=GD3
 BJ Pop=CHELPG SP IOp(6/33=2)
 ----------------------------------------------------------------------

 Structure from the checkpoint file:  "MAA1-VP1-4.chk"
 ----------------
 MAA1-VP1 geo opt
 ----------------
 Charge =  0 Multiplicity = 1

                         Standard orientation:
 ---------------------------------------------------------------------
 Center     Atomic      Atomic             Coordinates (Angstroms)
 Number     Number       Type             X           Y           Z
 ---------------------------------------------------------------------
      1          6           0       -2.389796   -0.771629   -1.700262
      2          6           0       -2.927446   -0.741953   -0.294066
      3          6           0       -3.131637   -1.830598    0.446940
      4          6           0       -3.295177    0.609868    0.273666
      5          8           0       -4.410330    0.879940    0.645556
      6          8           0       -2.304130    1.511743    0.316239
      7          1           0       -3.120135   -0.339424   -2.391883
      8          1           0       -2.184177   -1.796776   -2.014062
      9          1           0       -1.471604   -0.187571   -1.795719
     10          1           0       -2.893781   -2.819924    0.069847
     11          1           0       -3.557683   -1.762225    1.440714
     12          1           0       -1.408521    1.102170    0.161340
     13          6           0        5.435119    0.079353   -0.117191
     14          6           0        4.360242   -0.651645    0.186824
     15          6           0        2.960724   -0.209319    0.134256
     16          6           0        2.566836    1.080871   -0.249716
     17          6           0        1.219913    1.405152   -0.267882
     18          7           0        0.250313    0.540357    0.063430
     19          6           0        0.614668   -0.691682    0.434230
     20          6           0        1.940217   -1.103276    0.482095
     21          1           0        6.430405   -0.341059   -0.045511
     22          1           0        5.368885    1.110542   -0.444399
     23          1           0        4.502752   -1.679783    0.508296
     24          1           0        3.295082    1.830269   -0.530589
     25          1           0        0.893567    2.398458   -0.557767
     26          1           0       -0.192209   -1.367146    0.697764
     27          1           0        2.178926   -2.114355    0.790239
 ---------------------------------------------------------------------

 SCF Done:  E(RB3LYP) =  -632.403252980     A.U. after   15 cycles

 The electronic state is 1-A.
 Alpha  occ. eigenvalues --  -19.13554 -19.09029 -14.34922 -10.28692 -10.23966
 Alpha  occ. eigenvalues --  -10.23854 -10.23316 -10.21318 -10.21220 -10.21195
 Alpha  occ. eigenvalues --  -10.20450 -10.19481 -10.17612 -10.17305  -1.08051
 Alpha  occ. eigenvalues --   -1.00084  -0.98092  -0.86396  -0.81125  -0.79749
 Alpha  occ. eigenvalues --   -0.78866  -0.70116  -0.67997  -0.66492  -0.62687
 Alpha  occ. eigenvalues --   -0.60434  -0.58248  -0.54725  -0.52666  -0.50085
 Alpha  occ. eigenvalues --   -0.49792  -0.47978  -0.46086  -0.45884  -0.45107
 Alpha  occ. eigenvalues --   -0.44384  -0.43758  -0.42924  -0.41452  -0.40162
 Alpha  occ. eigenvalues --   -0.39911  -0.38703  -0.37922  -0.36174  -0.35899
 Alpha  occ. eigenvalues --   -0.30581  -0.29998  -0.29856  -0.28216  -0.27952
 Alpha  occ. eigenvalues --   -0.25090
 Alpha virt. eigenvalues --   -0.09151  -0.05062  -0.02544  -0.01876  -0.00875
 Alpha virt. eigenvalues --   -0.00533  -0.00190   0.00978   0.01196   0.02260
 Alpha virt. eigenvalues --    0.02939   0.02981   0.03628   0.03845   0.04304

 Mulliken charges:
               1
     1  C   -0.695333
     2  C    0.654158
     3  C   -0.410334
     4  C   -0.242585
     5  O   -0.256701
     6  O   -0.338887
     7  H    0.175746
     8  H    0.133961
     9  H    0.150678
    10  H    0.125325
    11  H    0.174917
    12  H    0.602973
    13  C   -0.441024
    14  C   -0.615332
    15  C    1.103591
    16  C   -0.245255
    17  C   -0.474089
    18  N   -0.137441
    19  C   -0.195655
    20  C   -0.211156
    21  H    0.176237
    22  H    0.122373
    23  H    0.146720
    24  H    0.139994
    25  H    0.157048
    26  H    0.208723
    27  H    0.191349
 Sum of Mulliken charges =  -0.00000

 Dipole moment (field-independent basis, Debye):
    X=              8.4525    Y=             -3.0194    Z=             -1.6463  Tot=              9.1254
 Quadrupole moment (field-independent basis, Debye-Ang):
   XX=            -96.5636   YY=            -80.4274   ZZ=            -85.3673
   XY=             11.5555   XZ=              5.7513   YZ=             -5.4940

 ESP charges:
               1
     1  C    0.087380
     2  C   -0.069700
     3  C   -0.358434
     4  C    0.849886
     5  O   -0.598061
     6  O   -0.600908
     7  H    0.001853
     8  H   -0.008060
     9  H   -0.029463
    10  H    0.158393
    11  H    0.128788
    12  H    0.254217
    13  C   -0.217049
    14  C   -0.236466
    15  C    0.386448
    16  C   -0.308513
    17  C    0.145679
    18  N   -0.239430
    19  C    0.183012
    20  C   -0.315294
    21  H    0.124830
    22  H    0.125149
    23  H    0.133861
    24  H    0.138493
    25  H    0.090988
    26  H    0.038255
    27  H    0.134148
 Sum of ESP charges =   0.00000

 Normal termination of Gaussian 16 at Thu Apr 21 11:29:31 2022.
