 Gaussian 16, Revision A.03,

 ---------------------------------------------------------------------
 #n B3LYP/6-311++G(d,p) Opt freq EmpiricalDispersion=GD3BJ IOp(6/33=2)
 ---------------------------------------------------------------------

 ----------------
 MAA1-VP1 geo opt
 ----------------
 Symbolic Z-matrix:
 Charge =  0 Multiplicity = 1

 SCF Done:  E(RB3LYP) =  -632.362603047     A.U. after   15 cycles
 SCF Done:  E(RB3LYP) =  -632.388440044     A.U. after   13 cycles
 SCF Done:  E(RB3LYP) =  -632.398512315     A.U. after   15 cycles
 SCF Done:  E(RB3LYP) =  -632.392454755     A.U. after   16 cycles
 SCF Done:  E(RB3LYP) =  -632.398534617     A.U. after   15 cycles
 SCF Done:  E(RB3LYP) =  -632.400272394     A.U. after   13 cycles
 SCF Done:  E(RB3LYP) =  -632.402068844     A.U. after   14 cycles
 SCF Done:  E(RB3LYP) =  -632.403744919     A.U. after   14 cycles
 SCF Done:  E(RB3LYP) =  -632.403872800     A.U. after   13 cycles
 SCF Done:  E(RB3LYP) =  -632.405168635     A.U. after   15 cycles
 SCF Done:  E(RB3LYP) =  -632.405852776     A.U. after   11 cycles
 SCF Done:  E(RB3LYP) =  -632.405853225     A.U. after   11 cycles
 SCF Done:  E(RB3LYP) =  -632.405853432     A.U. after    9 cycles
 SCF Done:  E(RB3LYP) =  -632.405853513     A.U. after    9 cycles
 SCF Done:  E(RB3LYP) =  -632.405853569     A.U. after    9 cycles
 SCF Done:  E(RB3LYP) =  -632.405853633     A.U. after   10 cycles
 SCF Done:  E(RB3LYP) =  -632.405853669     A.U. after   10 cycles
 SCF Done:  E(RB3LYP) =  -632.405853682     A.U. after    9 cycles
 Optimization completed.
    -- Stationary point found.
 Normal termination of Gaussian 16 at Wed Jan 12 17:39:09 2022.

 ----------------------------------------------------------------------
 #N Geom=AllCheck Guess=TCheck SCRF=Check Test GenChk RB3LYP/6-311++G(d
 ,p) Freq
 ----------------------------------------------------------------------

 Structure from the checkpoint file:  "MAA1-VP1-1.chk"
 ----------------
 MAA1-VP1 geo opt
 ----------------
 Charge =  0 Multiplicity = 1

 SCF Done:  E(RB3LYP) =  -632.405853682     A.U. after    1 cycles

  Exact polarizability: 207.988 -15.565 148.084  -7.959  -1.704  98.112
 Approx polarizability: 283.203 -33.987 240.696 -15.889  -3.204 153.600

                      1                      2                      3
                      A                      A                      A
 Frequencies --     17.3531                22.0106                28.4232
 Red. masses --      3.7689                 4.6093                 3.8391
 Frc consts  --      0.0007                 0.0013                 0.0018
 IR Inten    --      1.4234                 0.3225                 1.0233

                      4                      5                      6
                      A                      A                      A
 Frequencies --     43.7937                69.7789                90.2048
 Red. masses --      2.8579                 4.0548                 7.7251
 Frc consts  --      0.0032                 0.0116                 0.0370
 IR Inten    --      0.5748                 0.0788                 0.8000

                      7                      8                      9
                      A                      A                      A
 Frequencies --    108.8727               144.5790               173.5003
 Red. masses --      4.4765                 4.6161                 1.1232
 Frc consts  --      0.0313                 0.0569                 0.0199
 IR Inten    --      1.3168                 3.3353                 0.3757

                     10                     11                     12
                      A                      A                      A
 Frequencies --    211.7223               243.2153               277.6596
 Red. masses --      2.9645                 3.2845                 3.9149
 Frc consts  --      0.0783                 0.1145                 0.1778
 IR Inten    --      0.5309                 0.1691                 5.7295

                     13                     14                     15
                      A                      A                      A
 Frequencies --    336.6097               380.8178               391.0707
 Red. masses --      3.9165                 2.8069                 2.6327
 Frc consts  --      0.2615                 0.2398                 0.2372
 IR Inten    --      1.6857                 0.7706                 0.3100

                     16                     17                     18
                      A                      A                      A
 Frequencies --    454.3402               459.7725               550.3649
 Red. masses --      4.1817                 2.4759                 3.3129
 Frc consts  --      0.5086                 0.3084                 0.5912
 IR Inten    --      3.4946                16.0044                 3.0753

                     19                     20                     21
                      A                      A                      A
 Frequencies --    568.1395               594.1842               660.3854
 Red. masses --      3.3705                 3.9664                 1.9250
 Frc consts  --      0.6410                 0.8251                 0.4946
 IR Inten    --     16.9542                17.4850                 0.8024

                     22                     23                     24
                      A                      A                      A
 Frequencies --    675.3666               683.2106               765.1519
 Red. masses --      1.4829                 6.8455                 2.2146
 Frc consts  --      0.3985                 1.8826                 0.7639
 IR Inten    --     14.5544                 0.1757                 4.1168

                     25                     26                     27
                      A                      A                      A
 Frequencies --    806.2646               813.7676               823.2194
 Red. masses --      4.5818                 5.3357                 2.4943
 Frc consts  --      1.7549                 2.0818                 0.9959
 IR Inten    --     16.4151                11.9495                20.0333

                     28                     29                     30
                      A                      A                      A
 Frequencies --    853.2479               877.8851               931.8612
 Red. masses --      1.7292                 1.2605                 1.1592
 Frc consts  --      0.7417                 0.5724                 0.5931
 IR Inten    --     44.8295                 3.7630                65.3347

                     31                     32                     33
                      A                      A                      A
 Frequencies --    952.2915               958.4668               959.3489
 Red. masses --      1.3756                 1.6392                 1.3816
 Frc consts  --      0.7350                 0.8872                 0.7492
 IR Inten    --     48.1587                 6.9928                36.1971

                     34                     35                     36
                      A                      A                      A
 Frequencies --    980.4233              1002.4362              1025.4716
 Red. masses --      1.3154                 1.4301                 1.5384
 Frc consts  --      0.7450                 0.8467                 0.9532
 IR Inten    --      2.2327                 0.4129                21.2463

                     37                     38                     39
                      A                      A                      A
 Frequencies --   1025.8098              1028.7891              1051.2454
 Red. masses --      1.1389                 4.0324                 1.6568
 Frc consts  --      0.7061                 2.5146                 1.0787
 IR Inten    --     15.8053                26.7464                 0.2595

                     40                     41                     42
                      A                      A                      A
 Frequencies --   1071.7037              1094.3352              1126.9489
 Red. masses --      1.4957                 1.9287                 1.5044
 Frc consts  --      1.0121                 1.3608                 1.1257
 IR Inten    --      0.5082                13.7768                 2.8719

                     43                     44                     45
                      A                      A                      A
 Frequencies --   1196.7320              1232.0407              1250.1789
 Red. masses --      3.5448                 2.1766                 1.4146
 Frc consts  --      2.9911                 1.9466                 1.3026
 IR Inten    --    117.4146                 5.1180                31.9983

                     46                     47                     48
                      A                      A                      A
 Frequencies --   1287.5741              1326.5332              1335.6402
 Red. masses --      6.9552                 2.6749                 1.4391
 Frc consts  --      6.7936                 2.7733                 1.5125
 IR Inten    --      1.3458                41.6750                 1.7417

                     49                     50                     51
                      A                      A                      A
 Frequencies --   1365.7156              1401.3632              1409.9331
 Red. masses --      1.2946                 1.3544                 1.3114
 Frc consts  --      1.4227                 1.5671                 1.5360
 IR Inten    --      0.6289               516.1394                23.0698

                     52                     53                     54
                      A                      A                      A
 Frequencies --   1445.4328              1449.4906              1463.2028
 Red. masses --      1.2167                 1.6416                 1.4749
 Frc consts  --      1.4977                 2.0321                 1.8604
 IR Inten    --      7.4809                45.5206                27.4164

                     55                     56                     57
                      A                      A                      A
 Frequencies --   1471.8911              1494.9393              1532.3611
 Red. masses --      1.0460                 1.0581                 2.1912
 Frc consts  --      1.3352                 1.3932                 3.0315
 IR Inten    --      9.1846                14.3281                 7.5372

                     58                     59                     60
                      A                      A                      A
 Frequencies --   1592.7274              1646.9852              1690.9056
 Red. masses --      6.1073                 5.3169                 4.3265
 Frc consts  --      9.1282                 8.4974                 7.2883
 IR Inten    --     26.3393               110.5799                 2.0286

                     61                     62                     63
                      A                      A                      A
 Frequencies --   1692.8273              1785.6182              3031.0518
 Red. masses --      5.0154                 9.0754                 1.0375
 Frc consts  --      8.4680                17.0487                 5.6162
 IR Inten    --     29.9170               380.4800                18.9113

                     64                     65                     66
                      A                      A                      A
 Frequencies --   3087.5832              3115.7215              3135.8289
 Red. masses --      1.0963                 1.1035                 1.0612
 Frc consts  --      6.1578                 6.3115                 6.1481
 IR Inten    --     13.5420                10.7382                 5.6575

                     67                     68                     69
                      A                      A                      A
 Frequencies --   3143.0069              3149.2819              3163.9741
 Red. masses --      1.0706                 1.0791                 1.0854
 Frc consts  --      6.2311                 6.3055                 6.4019
 IR Inten    --     12.8318                 9.6133               451.8143

                     70                     71                     72
                      A                      A                      A
 Frequencies --   3168.5005              3179.4577              3188.9862
 Red. masses --      1.0867                 1.0854                 1.0920
 Frc consts  --      6.4278                 6.4648                 6.5429
 IR Inten    --    208.6022              1109.8665               352.7005

                     73                     74                     75
                      A                      A                      A
 Frequencies --   3200.0068              3223.5066              3230.2205
 Red. masses --      1.0932                 1.1143                 1.1154
 Frc consts  --      6.5955                 6.8217                 6.8571
 IR Inten    --     79.3659                 6.6121                 7.3021

 - Thermochemistry -
 -------------------
 Temperature   298.150 Kelvin.  Pressure   1.00000 Atm.
 Atom     1 has atomic number  6 and mass  12.00000

 Molecular mass:   191.09463 amu.
 Principal axes and moments of inertia in atomic units:
                           1         2         3
     Eigenvalues --  1033.615527022.112697775.51907
           X            0.99993   0.01171   0.00104
           Y           -0.01169   0.99983  -0.01459
           Z           -0.00121   0.01457   0.99989
 This molecule is an asymmetric top.
 Rotational symmetry number  1.
 Warning -- assumption of classical behavior for rotation
           may cause significant error
 Rotational temperatures (Kelvin)      0.08380     0.01233     0.01114
 Rotational constants (GHZ):           1.74605     0.25701     0.23211
 Zero-point vibrational energy     570757.9 (Joules/Mol)
                                  136.41440 (Kcal/Mol)
 Warning -- explicit consideration of  20 degrees of freedom as
           vibrations may cause significant error
 Vibrational temperatures:     24.97    31.67    40.89    63.01   100.40
          (Kelvin)            129.78   156.64   208.02   249.63   304.62
                              349.93   399.49   484.31   547.91   562.66
                              653.69   661.51   791.85   817.43   854.90
                              950.15   971.70   982.99  1100.88  1160.04
                             1170.83  1184.43  1227.63  1263.08  1340.74
                             1370.14  1379.02  1380.29  1410.61  1442.28
                             1475.42  1475.91  1480.20  1512.51  1541.94
                             1574.50  1621.43  1721.83  1772.63  1798.73
                             1852.53  1908.59  1921.69  1964.96  2016.25
                             2028.58  2079.66  2085.49  2105.22  2117.72
                             2150.88  2204.73  2291.58  2369.64  2432.84
                             2435.60  2569.11  4361.01  4442.34  4482.83
                             4511.76  4522.09  4531.11  4552.25  4558.77
                             4574.53  4588.24  4604.10  4637.91  4647.57

 Zero-point correction=                           0.217390 (Hartree/Particle)
 Thermal correction to Energy=                    0.232243
 Thermal correction to Enthalpy=                  0.233187
 Thermal correction to Gibbs Free Energy=         0.171405
 Sum of electronic and zero-point Energies=           -632.188463
 Sum of electronic and thermal Energies=              -632.173611
 Sum of electronic and thermal Enthalpies=            -632.172667
 Sum of electronic and thermal Free Energies=         -632.234449

                     E (Thermal)             CV                S
                      KCal/Mol        Cal/Mol-Kelvin    Cal/Mol-Kelvin
 Total                  145.735             52.509            130.031
 Electronic               0.000              0.000              0.000
 Translational            0.889              2.981             41.648
 Rotational               0.889              2.981             32.401
 Vibrational            143.957             46.548             55.982
 Vibration     1          0.593              1.986              6.916
 Vibration     2          0.593              1.985              6.444
 Vibration     3          0.593              1.984              5.937
 Vibration     4          0.595              1.980              5.080
 Vibration     5          0.598              1.969              4.160
 Vibration     6          0.602              1.956              3.656
 Vibration     7          0.606              1.942              3.289
 Vibration     8          0.616              1.909              2.742
 Vibration     9          0.627              1.875              2.397
 Vibration    10          0.643              1.823              2.029
 Vibration    11          0.659              1.774              1.779
 Vibration    12          0.679              1.715              1.548
 Vibration    13          0.717              1.602              1.228
 Vibration    14          0.751              1.511              1.036
 Vibration    15          0.759              1.489              0.996
 Vibration    16          0.813              1.351              0.783
 Vibration    17          0.818              1.339              0.767
 Vibration    18          0.906              1.139              0.543
 Vibration    19          0.924              1.100              0.508
 Vibration    20          0.952              1.044              0.460

 Optimization completed.
    -- Stationary point found.
 Normal termination of Gaussian 16 at Wed Jan 12 17:43:05 2022.
 Gaussian 16:  AM64L-G16RevA.03 25-Dec-2016

 ----------------------------------------------------------------------
 #P B3LYP/6-311++G(d,p) Geom=Allcheck SCF=Tight EmpiricalDispersion=GD3
 BJ Pop=CHELPG SP IOp(6/33=2)
 ----------------------------------------------------------------------

 Structure from the checkpoint file:  "MAA1-VP1-1.chk"
 ----------------
 MAA1-VP1 geo opt
 ----------------
 Charge =  0 Multiplicity = 1

                         Standard orientation:
 ---------------------------------------------------------------------
 Center     Atomic      Atomic             Coordinates (Angstroms)
 Number     Number       Type             X           Y           Z
 ---------------------------------------------------------------------
      1          6           0        3.998793    1.737722   -0.493754
      2          6           0        3.100141    0.778238    0.233295
      3          6           0        2.300761    1.135913    1.241470
      4          6           0        3.252659   -0.668805   -0.166201
      5          8           0        4.314040   -1.093493   -0.560117
      6          8           0        2.186701   -1.467388   -0.044802
      7          1           0        5.040532    1.427885   -0.387098
      8          1           0        3.881478    2.752631   -0.110489
      9          1           0        3.781697    1.737449   -1.566366
     10          1           0        2.257141    2.165552    1.580517
     11          1           0        1.691839    0.418090    1.776292
     12          1           0        1.327212   -0.979547    0.079926
     13          6           0       -5.279617    1.158610   -0.295939
     14          6           0       -4.613104    0.015182   -0.121357
     15          6           0       -3.154917   -0.141783   -0.041922
     16          6           0       -2.250370    0.923661   -0.161461
     17          6           0       -0.890070    0.677321   -0.069851
     18          7           0       -0.375811   -0.544424    0.129550
     19          6           0       -1.228689   -1.567911    0.238642
     20          6           0       -2.607362   -1.414200    0.162904
     21          1           0       -6.361443    1.169046   -0.341156
     22          1           0       -4.782663    2.116342   -0.399032
     23          1           0       -5.178054   -0.907895   -0.023886
     24          1           0       -2.594727    1.936320   -0.325709
     25          1           0       -0.170796    1.484448   -0.156184
     26          1           0       -0.784758   -2.546381    0.390096
     27          1           0       -3.252065   -2.279614    0.260631
 ---------------------------------------------------------------------

 SCF Done:  E(RB3LYP) =  -632.405853682     A.U. after   15 cycles

 The electronic state is 1-A.
 Alpha  occ. eigenvalues --  -19.13471 -19.08919 -14.34684 -10.28675 -10.23760
 Alpha  occ. eigenvalues --  -10.23692 -10.23143 -10.21193 -10.21055 -10.21030
 Alpha  occ. eigenvalues --  -10.20321 -10.19589 -10.17776 -10.16666  -1.08000
 Alpha  occ. eigenvalues --   -1.00005  -0.97891  -0.86233  -0.81049  -0.79566
 Alpha  occ. eigenvalues --   -0.78721  -0.69704  -0.67812  -0.66335  -0.62757
 Alpha  occ. eigenvalues --   -0.60273  -0.58390  -0.54643  -0.52448  -0.50137
 Alpha  occ. eigenvalues --   -0.49875  -0.47746  -0.45936  -0.45860  -0.44820
 Alpha  occ. eigenvalues --   -0.44045  -0.43642  -0.42027  -0.41218  -0.40302
 Alpha  occ. eigenvalues --   -0.40004  -0.38544  -0.37714  -0.35998  -0.35328
 Alpha  occ. eigenvalues --   -0.30423  -0.29945  -0.29681  -0.27936  -0.27367
 Alpha  occ. eigenvalues --   -0.26073
 Alpha virt. eigenvalues --   -0.08972  -0.05063  -0.03563  -0.01925  -0.00940
 Alpha virt. eigenvalues --   -0.00334   0.00016   0.00762   0.01801   0.02116
 Alpha virt. eigenvalues --    0.02636   0.03335   0.03889   0.04297   0.05036

 Mulliken charges:
               1
     1  C   -0.617318
     2  C    0.791081
     3  C   -0.632931
     4  C   -0.219154
     5  O   -0.265255
     6  O   -0.326720
     7  H    0.180690
     8  H    0.129991
     9  H    0.174992
    10  H    0.136514
    11  H    0.141143
    12  H    0.619364
    13  C   -0.322214
    14  C   -0.757483
    15  C    0.886873
    16  C    0.038482
    17  C   -0.937418
    18  N   -0.085818
    19  C   -0.626509
    20  C    0.563885
    21  H    0.180742
    22  H    0.135549
    23  H    0.148563
    24  H    0.133243
    25  H    0.169448
    26  H    0.153727
    27  H    0.206535
 Sum of Mulliken charges =  -0.00000

 Dipole moment (field-independent basis, Debye):
    X=             -7.8304    Y=              3.4686    Z=              0.9127  Tot=              8.6127
 Quadrupole moment (field-independent basis, Debye-Ang):
   XX=            -90.8442   YY=            -79.8328   ZZ=            -87.0859
   XY=             13.8501   XZ=              3.8959   YZ=             -3.0527

 ESP charges:
               1
     1  C   -0.047831
     2  C   -0.026601
     3  C   -0.318730
     4  C    0.782732
     5  O   -0.571804
     6  O   -0.585812
     7  H    0.038683
     8  H    0.028239
     9  H    0.023556
    10  H    0.139203
    11  H    0.105989
    12  H    0.261593
    13  C   -0.250194
    14  C   -0.222874
    15  C    0.382213
    16  C   -0.271670
    17  C    0.145907
    18  N   -0.274263
    19  C    0.193333
    20  C   -0.342538
    21  H    0.134482
    22  H    0.131562
    23  H    0.137726
    24  H    0.133593
    25  H    0.053248
    26  H    0.087197
    27  H    0.133061
 Sum of ESP charges =  -0.00000

 Normal termination of Gaussian 16 at Wed Jan 12 18:10:37 2022.
