 Gaussian 16, Revision A.03,

 ---------------------------------------------------------------------
 #n B3LYP/6-311++G(d,p) Opt freq EmpiricalDispersion=GD3BJ IOp(6/33=2)
 ---------------------------------------------------------------------

 ----------------
 MAA1-VP1 geo opt
 ----------------
 Symbolic Z-matrix:
 Charge =  0 Multiplicity = 1

 SCF Done:  E(RB3LYP) =  -632.362372835     A.U. after   15 cycles
 SCF Done:  E(RB3LYP) =  -632.387620594     A.U. after   14 cycles
 SCF Done:  E(RB3LYP) =  -632.396837975     A.U. after   14 cycles
 SCF Done:  E(RB3LYP) =  -632.399137206     A.U. after   13 cycles
 SCF Done:  E(RB3LYP) =  -632.401536397     A.U. after   14 cycles
 SCF Done:  E(RB3LYP) =  -632.402563960     A.U. after   14 cycles
 SCF Done:  E(RB3LYP) =  -632.403592470     A.U. after   13 cycles
 SCF Done:  E(RB3LYP) =  -632.404265482     A.U. after   13 cycles
 SCF Done:  E(RB3LYP) =  -632.404745211     A.U. after   14 cycles
 SCF Done:  E(RB3LYP) =  -632.405102402     A.U. after   15 cycles
 SCF Done:  E(RB3LYP) =  -632.405816280     A.U. after   10 cycles
 SCF Done:  E(RB3LYP) =  -632.405817014     A.U. after    9 cycles
 SCF Done:  E(RB3LYP) =  -632.405817522     A.U. after   10 cycles
 SCF Done:  E(RB3LYP) =  -632.405817726     A.U. after   10 cycles
 SCF Done:  E(RB3LYP) =  -632.405817850     A.U. after    9 cycles
 SCF Done:  E(RB3LYP) =  -632.405817982     A.U. after    9 cycles
 SCF Done:  E(RB3LYP) =  -632.405818042     A.U. after    8 cycles
 SCF Done:  E(RB3LYP) =  -632.405818057     A.U. after    8 cycles
 Optimization completed.
    -- Stationary point found.
 Normal termination of Gaussian 16 at Thu Apr 21 11:10:02 2022.

 ----------------------------------------------------------------------
 #N Geom=AllCheck Guess=TCheck SCRF=Check Test GenChk RB3LYP/6-311++G(d
 ,p) Freq
 ----------------------------------------------------------------------

 Structure from the checkpoint file:  "MAA1-VP1-3.chk"
 ----------------
 MAA1-VP1 geo opt
 ----------------
 Charge =  0 Multiplicity = 1

 SCF Done:  E(RB3LYP) =  -632.405818057     A.U. after    1 cycles

  Exact polarizability: 216.753   2.601 140.687  -9.973  -0.594  97.462
 Approx polarizability: 297.518   2.367 227.100 -19.682  -0.517 152.206

                      1                      2                      3
                      A                      A                      A
 Frequencies --     14.8889                21.5876                30.4636
 Red. masses --      3.7263                 4.5054                 3.8061
 Frc consts  --      0.0005                 0.0012                 0.0021
 IR Inten    --      0.5425                 0.5849                 1.0259

                      4                      5                      6
                      A                      A                      A
 Frequencies --     39.3885                69.0438                90.3744
 Red. masses --      2.9343                 4.1998                 7.7119
 Frc consts  --      0.0027                 0.0118                 0.0371
 IR Inten    --      0.7183                 0.1013                 0.8112

                      7                      8                      9
                      A                      A                      A
 Frequencies --    106.9901               147.8214               173.5798
 Red. masses --      4.2670                 4.6507                 1.1281
 Frc consts  --      0.0288                 0.0599                 0.0200
 IR Inten    --      1.1492                 3.6924                 0.3729

                     10                     11                     12
                      A                      A                      A
 Frequencies --    211.1078               242.1636               276.2789
 Red. masses --      2.9657                 3.2583                 3.9269
 Frc consts  --      0.0779                 0.1126                 0.1766
 IR Inten    --      0.5081                 0.0869                 5.9068

                     13                     14                     15
                      A                      A                      A
 Frequencies --    336.2483               379.8132               390.7908
 Red. masses --      3.9158                 2.8017                 2.6376
 Frc consts  --      0.2609                 0.2381                 0.2373
 IR Inten    --      1.6723                 0.7548                 0.1270

                     16                     17                     18
                      A                      A                      A
 Frequencies --    455.4442               459.3314               550.0291
 Red. masses --      3.9568                 2.5615                 3.3121
 Frc consts  --      0.4836                 0.3184                 0.5904
 IR Inten    --      4.8813                15.7206                 2.2185

                     19                     20                     21
                      A                      A                      A
 Frequencies --    568.3618               593.9522               659.9177
 Red. masses --      3.3631                 3.9740                 1.9283
 Frc consts  --      0.6401                 0.8260                 0.4948
 IR Inten    --     17.5142                17.4332                 0.7484

                     22                     23                     24
                      A                      A                      A
 Frequencies --    675.2519               683.2085               764.4185
 Red. masses --      1.4820                 6.8422                 2.2391
 Frc consts  --      0.3981                 1.8817                 0.7709
 IR Inten    --     14.5154                 0.0503                 3.8657

                     25                     26                     27
                      A                      A                      A
 Frequencies --    806.0148               814.0311               823.0131
 Red. masses --      4.6184                 5.2689                 2.5039
 Frc consts  --      1.7678                 2.0571                 0.9993
 IR Inten    --     15.9870                13.4782                19.7379

                     28                     29                     30
                      A                      A                      A
 Frequencies --    851.2671               878.6683               932.3402
 Red. masses --      1.7084                 1.2677                 1.1584
 Frc consts  --      0.7294                 0.5767                 0.5933
 IR Inten    --     43.4705                 5.3629                66.1124

                     31                     32                     33
                      A                      A                      A
 Frequencies --    952.1367               958.0732               959.0771
 Red. masses --      1.3651                 1.6887                 1.3609
 Frc consts  --      0.7291                 0.9133                 0.7375
 IR Inten    --     45.0583                 5.4382                40.2747

                     34                     35                     36
                      A                      A                      A
 Frequencies --    979.9183              1001.9114              1024.7519
 Red. masses --      1.3122                 1.4284                 1.1340
 Frc consts  --      0.7424                 0.8448                 0.7016
 IR Inten    --      2.6808                 0.5081                17.7629

                     37                     38                     39
                      A                      A                      A
 Frequencies --   1025.3864              1028.6092              1051.8161
 Red. masses --      1.5647                 3.8303                 1.6691
 Frc consts  --      0.9693                 2.3877                 1.0879
 IR Inten    --     20.1235                23.4721                 0.3320

                     40                     41                     42
                      A                      A                      A
 Frequencies --   1071.6787              1094.3546              1126.5357
 Red. masses --      1.4959                 1.9287                 1.5048
 Frc consts  --      1.0123                 1.3610                 1.1252
 IR Inten    --      0.5327                14.7765                 0.6293

                     43                     44                     45
                      A                      A                      A
 Frequencies --   1196.8397              1231.7387              1250.0259
 Red. masses --      3.5524                 2.1873                 1.4094
 Frc consts  --      2.9981                 1.9552                 1.2976
 IR Inten    --    120.4735                 7.9092                26.6483

                     46                     47                     48
                      A                      A                      A
 Frequencies --   1287.9414              1326.6819              1335.6478
 Red. masses --      6.8301                 2.7131                 1.4331
 Frc consts  --      6.6753                 2.8135                 1.5063
 IR Inten    --     24.4374                37.7452                 0.4948

                     49                     50                     51
                      A                      A                      A
 Frequencies --   1365.9850              1401.7617              1409.9817
 Red. masses --      1.2950                 1.3472                 1.3178
 Frc consts  --      1.4237                 1.5597                 1.5436
 IR Inten    --      1.1774               520.6627                29.7049

                     52                     53                     54
                      A                      A                      A
 Frequencies --   1445.2345              1448.3484              1463.6380
 Red. masses --      1.2178                 1.6462                 1.4667
 Frc consts  --      1.4987                 2.0347                 1.8512
 IR Inten    --      9.0624                47.2526                10.1595

                     55                     56                     57
                      A                      A                      A
 Frequencies --   1471.8057              1494.8675              1532.6973
 Red. masses --      1.0460                 1.0581                 2.1946
 Frc consts  --      1.3351                 1.3930                 3.0375
 IR Inten    --      9.4316                14.1813                12.8537

                     58                     59                     60
                      A                      A                      A
 Frequencies --   1592.5103              1647.1169              1690.8773
 Red. masses --      6.1045                 5.3182                 4.3305
 Frc consts  --      9.1215                 8.5008                 7.2947
 IR Inten    --     37.4128               106.3039                 0.7077

                     61                     62                     63
                      A                      A                      A
 Frequencies --   1692.5848              1785.6814              3031.0827
 Red. masses --      5.0192                 9.0670                 1.0375
 Frc consts  --      8.4720                17.0341                 5.6163
 IR Inten    --     30.8388               378.6675                19.3011

                     64                     65                     66
                      A                      A                      A
 Frequencies --   3087.6181              3115.7631              3135.4823
 Red. masses --      1.0963                 1.1035                 1.0611
 Frc consts  --      6.1580                 6.3117                 6.1464
 IR Inten    --     13.6175                10.9901                 5.7357

                     67                     68                     69
                      A                      A                      A
 Frequencies --   3142.8296              3149.3938              3164.2658
 Red. masses --      1.0722                 1.0774                 1.0841
 Frc consts  --      6.2398                 6.2961                 6.3956
 IR Inten    --     13.0016                 9.6073               642.2443

                     70                     71                     72
                      A                      A                      A
 Frequencies --   3167.8866              3178.1800              3188.8462
 Red. masses --      1.0878                 1.0855                 1.0921
 Frc consts  --      6.4321                 6.4600                 6.5429
 IR Inten    --     11.3053              1110.7109               387.6818

                     73                     74                     75
                      A                      A                      A
 Frequencies --   3200.8749              3222.8937              3230.5320
 Red. masses --      1.0932                 1.1144                 1.1154
 Frc consts  --      6.5990                 6.8199                 6.8586
 IR Inten    --     54.5713                 6.8450                 7.0366

 - Thermochemistry -
 -------------------
 Temperature   298.150 Kelvin.  Pressure   1.00000 Atm.
 Atom     1 has atomic number  6 and mass  12.00000

 Molecular mass:   191.09463 amu.
 Principal axes and moments of inertia in atomic units:
                           1         2         3
     Eigenvalues --   941.831127204.997027881.98613
           X            0.99988   0.01558  -0.00017
           Y           -0.01558   0.99975  -0.01604
           Z           -0.00008   0.01604   0.99987
 This molecule is an asymmetric top.
 Rotational symmetry number  1.
 Warning -- assumption of classical behavior for rotation
           may cause significant error
 Rotational temperatures (Kelvin)      0.09196     0.01202     0.01099
 Rotational constants (GHZ):           1.91620     0.25048     0.22897
 Zero-point vibrational energy     570664.5 (Joules/Mol)
                                  136.39209 (Kcal/Mol)
 Warning -- explicit consideration of  20 degrees of freedom as
           vibrations may cause significant error
 Vibrational temperatures:     21.42    31.06    43.83    56.67    99.34
          (Kelvin)            130.03   153.93   212.68   249.74   303.74
                              348.42   397.50   483.79   546.47   562.26
                              655.28   660.88   791.37   817.75   854.56
                              949.47   971.54   982.98  1099.83  1159.68
                             1171.21  1184.13  1224.78  1264.21  1341.43
                             1369.91  1378.45  1379.90  1409.88  1441.53
                             1474.39  1475.30  1479.94  1513.33  1541.91
                             1574.53  1620.83  1721.99  1772.20  1798.51
                             1853.06  1908.80  1921.70  1965.35  2016.82
                             2028.65  2079.37  2083.85  2105.85  2117.60
                             2150.78  2205.21  2291.27  2369.83  2432.80
                             2435.25  2569.20  4361.05  4442.39  4482.89
                             4511.26  4521.83  4531.28  4552.67  4557.88
                             4572.69  4588.04  4605.35  4637.03  4648.01

 Zero-point correction=                           0.217355 (Hartree/Particle)
 Thermal correction to Energy=                    0.232224
 Thermal correction to Enthalpy=                  0.233169
 Thermal correction to Gibbs Free Energy=         0.171196
 Sum of electronic and zero-point Energies=           -632.188463
 Sum of electronic and thermal Energies=              -632.173594
 Sum of electronic and thermal Enthalpies=            -632.172649
 Sum of electronic and thermal Free Energies=         -632.234622

                     E (Thermal)             CV                S
                      KCal/Mol        Cal/Mol-Kelvin    Cal/Mol-Kelvin
 Total                  145.723             52.524            130.432
 Electronic               0.000              0.000              0.000
 Translational            0.889              2.981             41.648
 Rotational               0.889              2.981             32.348
 Vibrational            143.946             46.562             56.436
 Vibration     1          0.593              1.986              7.220
 Vibration     2          0.593              1.985              6.483
 Vibration     3          0.594              1.984              5.799
 Vibration     4          0.594              1.981              5.290
 Vibration     5          0.598              1.969              4.180
 Vibration     6          0.602              1.956              3.652
 Vibration     7          0.606              1.944              3.323
 Vibration     8          0.617              1.905              2.700
 Vibration     9          0.627              1.875              2.396
 Vibration    10          0.643              1.824              2.034
 Vibration    11          0.658              1.776              1.787
 Vibration    12          0.678              1.717              1.557
 Vibration    13          0.717              1.603              1.230
 Vibration    14          0.750              1.513              1.040
 Vibration    15          0.758              1.490              0.997
 Vibration    16          0.814              1.349              0.779
 Vibration    17          0.817              1.340              0.768
 Vibration    18          0.905              1.140              0.544
 Vibration    19          0.924              1.100              0.507
 Vibration    20          0.952              1.045              0.460

                           ! Non-Optimized Parameters !
 Normal termination of Gaussian 16 at Thu Apr 21 11:13:12 2022.
 Gaussian 16:  ES64L-G16RevA.03 25-Dec-2016

 ----------------------------------------------------------------------
 #P B3LYP/6-311++G(d,p) Geom=Allcheck SCF=Tight EmpiricalDispersion=GD3
 BJ Pop=CHELPG SP IOp(6/33=2)
 ----------------------------------------------------------------------

 Structure from the checkpoint file:  "MAA1-VP1-3.chk"
 ----------------
 MAA1-VP1 geo opt
 ----------------
 Charge =  0 Multiplicity = 1

                         Standard orientation:
 ---------------------------------------------------------------------
 Center     Atomic      Atomic             Coordinates (Angstroms)
 Number     Number       Type             X           Y           Z
 ---------------------------------------------------------------------
      1          6           0        4.176231    1.506252   -0.541337
      2          6           0        3.191123    0.661340    0.215202
      3          6           0        2.418957    1.130446    1.198607
      4          6           0        3.218439   -0.809302   -0.121234
      5          8           0        4.241467   -1.342488   -0.483441
      6          8           0        2.084748   -1.504564    0.020081
      7          1           0        4.145678    2.543093   -0.202650
      8          1           0        3.968181    1.478831   -1.615387
      9          1           0        5.185815    1.111267   -0.409721
     10          1           0        2.463858    2.173427    1.493890
     11          1           0        1.745329    0.492218    1.756297
     12          1           0        1.271142   -0.937368    0.113432
     13          6           0       -5.588134   -0.179098   -0.109046
     14          6           0       -4.538152    0.637804   -0.220206
     15          6           0       -3.123433    0.262351   -0.098397
     16          6           0       -2.684828   -1.045724    0.153697
     17          6           0       -1.326671   -1.302412    0.251188
     18          7           0       -0.387276   -0.354307    0.121651
     19          6           0       -0.794369    0.895038   -0.121354
     20          6           0       -2.133911    1.243659   -0.237869
     21          1           0       -6.597781    0.197276   -0.216091
     22          1           0       -5.486579   -1.239733    0.089737
     23          1           0       -4.715892    1.690951   -0.420432
     24          1           0       -3.386848   -1.860714    0.271257
     25          1           0       -0.963801   -2.307549    0.438858
     26          1           0       -0.012053    1.639464   -0.222916
     27          1           0       -2.407355    2.273266   -0.436457
 ---------------------------------------------------------------------

 SCF Done:  E(RB3LYP) =  -632.405818057     A.U. after   15 cycles

 The electronic state is 1-A.
 Alpha  occ. eigenvalues --  -19.13470 -19.08918 -14.34678 -10.28672 -10.23742
 Alpha  occ. eigenvalues --  -10.23698 -10.23138 -10.21183 -10.21051 -10.21019
 Alpha  occ. eigenvalues --  -10.20305 -10.19586 -10.17772 -10.16662  -1.08000
 Alpha  occ. eigenvalues --   -1.00005  -0.97886  -0.86226  -0.81046  -0.79566
 Alpha  occ. eigenvalues --   -0.78704  -0.69700  -0.67840  -0.66285  -0.62756
 Alpha  occ. eigenvalues --   -0.60263  -0.58430  -0.54545  -0.52509  -0.50140
 Alpha  occ. eigenvalues --   -0.49851  -0.47756  -0.45891  -0.45856  -0.44812
 Alpha  occ. eigenvalues --   -0.44051  -0.43637  -0.42028  -0.41224  -0.40291
 Alpha  occ. eigenvalues --   -0.40022  -0.38514  -0.37712  -0.35993  -0.35328
 Alpha  occ. eigenvalues --   -0.30423  -0.29944  -0.29672  -0.27926  -0.27363
 Alpha  occ. eigenvalues --   -0.26070
 Alpha virt. eigenvalues --   -0.08966  -0.05011  -0.03611  -0.01910  -0.00839
 Alpha virt. eigenvalues --   -0.00431  -0.00003   0.00798   0.01879   0.02043
 Alpha virt. eigenvalues --    0.02921   0.03270   0.03722   0.04199   0.05050

 Mulliken charges:
               1
     1  C   -0.614251
     2  C    0.755322
     3  C   -0.617075
     4  C   -0.204369
     5  O   -0.264566
     6  O   -0.329428
     7  H    0.130493
     8  H    0.174921
     9  H    0.181102
    10  H    0.135981
    11  H    0.142119
    12  H    0.613324
    13  C   -0.427936
    14  C   -0.638843
    15  C    1.072436
    16  C   -0.175103
    17  C   -0.578231
    18  N   -0.123116
    19  C   -0.060100
    20  C   -0.265643
    21  H    0.176942
    22  H    0.122344
    23  H    0.147753
    24  H    0.139465
    25  H    0.160850
    26  H    0.158617
    27  H    0.186993
 Sum of Mulliken charges =  -0.00000

 Dipole moment (field-independent basis, Debye):
    X=             -7.5685    Y=              3.9183    Z=              0.7077  Tot=              8.5519
 Quadrupole moment (field-independent basis, Debye-Ang):
   XX=            -88.0956   YY=            -81.8718   ZZ=            -86.8209
   XY=             15.3871   XZ=              2.9536   YZ=             -3.2377

 ESP charges:
               1
     1  C   -0.063410
     2  C   -0.024336
     3  C   -0.328488
     4  C    0.776213
     5  O   -0.569901
     6  O   -0.580613
     7  H    0.032657
     8  H    0.026820
     9  H    0.045048
    10  H    0.143071
    11  H    0.109375
    12  H    0.262935
    13  C   -0.240756
    14  C   -0.211267
    15  C    0.353135
    16  C   -0.279440
    17  C    0.157518
    18  N   -0.273667
    19  C    0.179818
    20  C   -0.296819
    21  H    0.129019
    22  H    0.133992
    23  H    0.129928
    24  H    0.127200
    25  H    0.087505
    26  H    0.047776
    27  H    0.126689
 Sum of ESP charges =  -0.00000

 Normal termination of Gaussian 16 at Thu Apr 21 11:20:38 2022.
