 Gaussian 16, Revision A.03,

 ---------------------------------------------------------------------
 #n B3LYP/6-311++G(d,p) Opt freq EmpiricalDispersion=GD3BJ IOp(6/33=2)
 ---------------------------------------------------------------------

 -----------
 1VI geo opt
 -----------
 Symbolic Z-matrix:
 Charge =  0 Multiplicity = 1

 SCF Done:  E(RB3LYP) =  -303.712733911     A.U. after   13 cycles
 SCF Done:  E(RB3LYP) =  -303.714315711     A.U. after   11 cycles
 SCF Done:  E(RB3LYP) =  -303.714554622     A.U. after   10 cycles
 SCF Done:  E(RB3LYP) =  -303.714592533     A.U. after   10 cycles
 SCF Done:  E(RB3LYP) =  -303.714608988     A.U. after    9 cycles
 SCF Done:  E(RB3LYP) =  -303.714609376     A.U. after    7 cycles
 Optimization completed.
    -- Stationary point found.
 Normal termination of Gaussian 16 at Thu Apr 21 16:30:21 2022.

 ----------------------------------------------------------------------
 #N Geom=AllCheck Guess=TCheck SCRF=Check Test GenChk RB3LYP/6-311++G(d
 ,p) Freq
 ----------------------------------------------------------------------

 Structure from the checkpoint file:  "1VI-2.chk"
 -----------
 1VI geo opt
 -----------
 Charge =  0 Multiplicity = 1

 SCF Done:  E(RB3LYP) =  -303.714609376     A.U. after    1 cycles

  Exact polarizability: 104.402   5.609  72.473  -0.004  -0.006  44.609
 Approx polarizability: 156.420  15.819 115.423   0.001  -0.015  64.065

                      1                      2                      3
                      A                      A                      A
 Frequencies --     77.8647               215.5437               246.3611
 Red. masses --      2.8078                 2.3300                 3.2088
 Frc consts  --      0.0100                 0.0638                 0.1147
 IR Inten    --      2.4204                 0.7218                 2.2048

                      4                      5                      6
                      A                      A                      A
 Frequencies --    494.9368               594.7114               664.0987
 Red. masses --      3.5062                 2.3741                 3.4109
 Frc consts  --      0.5060                 0.4947                 0.8863
 IR Inten    --      0.1111                11.0487                20.6256

                      7                      8                      9
                      A                      A                      A
 Frequencies --    674.1892               708.7552               720.2558
 Red. masses --      2.8954                 2.0091                 1.2377
 Frc consts  --      0.7754                 0.5946                 0.3783
 IR Inten    --     11.6122                 3.4806                21.2787

                     10                     11                     12
                      A                      A                      A
 Frequencies --    805.1226               868.7929               885.3642
 Red. masses --      1.4465                 1.3663                 1.3597
 Frc consts  --      0.5525                 0.6076                 0.6280
 IR Inten    --     26.3364                 6.3081                60.2966

                     13                     14                     15
                      A                      A                      A
 Frequencies --    918.6867               987.0031              1025.4570
 Red. masses --      6.2233                 1.1091                 2.6260
 Frc consts  --      3.0946                 0.6366                 1.6269
 IR Inten    --      3.4593                20.0812                33.0452

                     16                     17                     18
                      A                      A                      A
 Frequencies --   1062.0139              1098.9029              1135.5585
 Red. masses --      1.7559                 1.5077                 2.1113
 Frc consts  --      1.1669                 1.0727                 1.6041
 IR Inten    --     11.5696                24.2365                12.7256

                     19                     20                     21
                      A                      A                      A
 Frequencies --   1250.9532              1303.0141              1314.0810
 Red. masses --      1.6218                 2.0590                 2.4627
 Frc consts  --      1.4953                 2.0597                 2.5056
 IR Inten    --     61.0318                25.6817                28.8190

                     22                     23                     24
                      A                      A                      A
 Frequencies --   1350.1959              1415.5696              1458.4738
 Red. masses --      1.7607                 3.2953                 1.3399
 Frc consts  --      1.8911                 3.8906                 1.6793
 IR Inten    --     12.9695                 1.1712                 9.9423

                     25                     26                     27
                      A                      A                      A
 Frequencies --   1513.1337              1545.8574              1706.9807
 Red. masses --      3.5662                 4.3372                 4.6010
 Frc consts  --      4.8107                 6.1066                 7.8988
 IR Inten    --    135.9480                55.6271               139.2151

                     28                     29                     30
                      A                      A                      A
 Frequencies --   3163.9516              3186.5947              3236.5812
 Red. masses --      1.0586                 1.0938                 1.0962
 Frc consts  --      6.2439                 6.5438                 6.7658
 IR Inten    --      2.3842                 3.3754                 1.5418

                     31                     32                     33
                      A                      A                      A
 Frequencies --   3243.6989              3252.0248              3285.3910
 Red. masses --      1.0950                 1.1161                 1.1025
 Frc consts  --      6.7879                 6.9545                 7.0116
 IR Inten    --      4.6730                 3.9009                 1.1367

 - Thermochemistry -
 -------------------
 Temperature   298.150 Kelvin.  Pressure   1.00000 Atm.
 Atom     1 has atomic number  1 and mass   1.00783

 Molecular mass:    94.05310 amu.
 Principal axes and moments of inertia in atomic units:
                           1         2         3
     Eigenvalues --   218.33228 860.808441079.13990
           X            0.99996  -0.00854  -0.00003
           Y            0.00854   0.99996  -0.00006
           Z            0.00003   0.00006   1.00000
 This molecule is an asymmetric top.
 Rotational symmetry number  1.
 Rotational temperatures (Kelvin)      0.39671     0.10062     0.08026
 Rotational constants (GHZ):           8.26603     2.09657     1.67239
 Zero-point vibrational energy     271612.8 (Joules/Mol)
                                   64.91703 (Kcal/Mol)
 Warning -- explicit consideration of   5 degrees of freedom as
           vibrations may cause significant error
 Vibrational temperatures:    112.03   310.12   354.46   712.10   855.66
          (Kelvin)            955.49   970.01  1019.74  1036.29  1158.39
                             1250.00  1273.84  1321.79  1420.08  1475.40
                             1528.00  1581.08  1633.82  1799.84  1874.75
                             1890.67  1942.63  2036.69  2098.42  2177.06
                             2224.14  2455.96  4552.22  4584.80  4656.72
                             4666.96  4678.94  4726.94

 Zero-point correction=                           0.103452 (Hartree/Particle)
 Thermal correction to Energy=                    0.109408
 Thermal correction to Enthalpy=                  0.110352
 Thermal correction to Gibbs Free Energy=         0.073475
 Sum of electronic and zero-point Energies=           -303.611158
 Sum of electronic and thermal Energies=              -303.605202
 Sum of electronic and thermal Enthalpies=            -303.604258
 Sum of electronic and thermal Free Energies=         -303.641135

                     E (Thermal)             CV                S
                      KCal/Mol        Cal/Mol-Kelvin    Cal/Mol-Kelvin
 Total                   68.654             21.913             77.615
 Electronic               0.000              0.000              0.000
 Translational            0.889              2.981             39.535
 Rotational               0.889              2.981             26.808
 Vibrational             66.877             15.952             11.271
 Vibration     1          0.599              1.964              3.944
 Vibration     2          0.645              1.817              1.996
 Vibration     3          0.661              1.769              1.756
 Vibration     4          0.851              1.261              0.671
 Vibration     5          0.952              1.043              0.459

                           ! Non-Optimized Parameters !
 Normal termination of Gaussian 16 at Thu Apr 21 16:30:47 2022.
 Gaussian 16:  ES64L-G16RevA.03 25-Dec-2016

 ----------------------------------------------------------------------
 #P B3LYP/6-311++G(d,p) Geom=Allcheck SCF=Tight EmpiricalDispersion=GD3
 BJ Pop=CHELPG SP IOp(6/33=2)
 ----------------------------------------------------------------------

 Structure from the checkpoint file:  "1VI-2.chk"
 -----------
 1VI geo opt
 -----------
 Charge =  0 Multiplicity = 1

                         Standard orientation:
 ---------------------------------------------------------------------
 Center     Atomic      Atomic             Coordinates (Angstroms)
 Number     Number       Type             X           Y           Z
 ---------------------------------------------------------------------
      1          1           0        3.609461   -0.033294   -0.001493
      2          6           0        2.594995    0.339934   -0.001370
      3          1           0        2.457666    1.413216   -0.003138
      4          6           0        1.579269   -0.519785    0.000746
      5          1           0        1.745797   -1.590457    0.002293
      6          7           0        0.216479   -0.186955    0.001362
      7          6           0       -0.817724   -1.099173   -0.000160
      8          1           0       -0.632023   -2.162716   -0.000312
      9          7           0       -1.989018   -0.517565   -0.001177
     10          6           0       -1.723581    0.838601   -0.000375
     11          1           0       -2.519312    1.566465   -0.000784
     12          6           0       -0.375455    1.067627    0.001086
     13          1           0        0.201160    1.975212    0.002579
 ---------------------------------------------------------------------

 SCF Done:  E(RB3LYP) =  -303.714609376     A.U. after   13 cycles

 The electronic state is 1-A.
 Alpha  occ. eigenvalues --  -14.39297 -14.30446 -10.23906 -10.23582 -10.20913
 Alpha  occ. eigenvalues --  -10.19577 -10.18650  -1.03714  -0.90890  -0.78629
 Alpha  occ. eigenvalues --   -0.75950  -0.65307  -0.61350  -0.58273  -0.54514
 Alpha  occ. eigenvalues --   -0.47664  -0.46129  -0.46061  -0.44141  -0.42536
 Alpha  occ. eigenvalues --   -0.40078  -0.34329  -0.28397  -0.26149  -0.24510
 Alpha virt. eigenvalues --   -0.04148  -0.01014   0.00140   0.01162   0.01698
 Alpha virt. eigenvalues --    0.02792   0.03860   0.04458   0.04797   0.05605
 Alpha virt. eigenvalues --    0.06290   0.07490   0.08348   0.09820   0.09938

 Mulliken charges:
               1
     1  H    0.159910
     2  C   -0.406907
     3  H    0.113513
     4  C   -0.005240
     5  H    0.155687
     6  N    0.108391
     7  C   -0.010101
     8  H    0.144566
     9  N   -0.178899
    10  C   -0.246206
    11  H    0.161267
    12  C   -0.113850
    13  H    0.117868
 Sum of Mulliken charges =  -0.00000

 Dipole moment (field-independent basis, Debye):
    X=              3.1802    Y=              0.4444    Z=              0.0027  Tot=              3.2111
 Quadrupole moment (field-independent basis, Debye-Ang):
   XX=            -45.3618   YY=            -35.5502   ZZ=            -45.6549
   XY=             -3.8393   XZ=             -0.0052   YZ=             -0.0047

 ESP charges:
               1
     1  H    0.132916
     2  C   -0.295281
     3  H    0.147784
     4  C   -0.179827
     5  H    0.144217
     6  N    0.272993
     7  C    0.137384
     8  H    0.089605
     9  N   -0.545012
    10  C    0.238104
    11  H    0.056129
    12  C   -0.384415
    13  H    0.185402
 Sum of ESP charges =  -0.00000

 Normal termination of Gaussian 16 at Thu Apr 21 16:31:48 2022.
