 Gaussian 16, Revision A.03,

 ---------------------------------------------------------------------
 #n B3LYP/6-311++G(d,p) Opt freq EmpiricalDispersion=GD3BJ IOp(6/33=2)
 ---------------------------------------------------------------------

 -----------
 1VI geo opt
 -----------
 Symbolic Z-matrix:
 Charge =  0 Multiplicity = 1

 SCF Done:  E(RB3LYP) =  -303.711317787     A.U. after   13 cycles
 SCF Done:  E(RB3LYP) =  -303.713189494     A.U. after   11 cycles
 SCF Done:  E(RB3LYP) =  -303.713786359     A.U. after   11 cycles
 SCF Done:  E(RB3LYP) =  -303.714103984     A.U. after   11 cycles
 SCF Done:  E(RB3LYP) =  -303.714325732     A.U. after   10 cycles
 SCF Done:  E(RB3LYP) =  -303.714490964     A.U. after   10 cycles
 SCF Done:  E(RB3LYP) =  -303.714596473     A.U. after   10 cycles
 SCF Done:  E(RB3LYP) =  -303.714602991     A.U. after    9 cycles
 SCF Done:  E(RB3LYP) =  -303.714607877     A.U. after    9 cycles
 SCF Done:  E(RB3LYP) =  -303.714609348     A.U. after    8 cycles
 Optimization completed.
    -- Stationary point found.
 Normal termination of Gaussian 16 at Thu Apr 21 16:36:11 2022.

 ----------------------------------------------------------------------
 #N Geom=AllCheck Guess=TCheck SCRF=Check Test GenChk RB3LYP/6-311++G(d
 ,p) Freq
 ----------------------------------------------------------------------

 Structure from the checkpoint file:  "1VI-4.chk"
 -----------
 1VI geo opt
 -----------
 Charge =  0 Multiplicity = 1

 SCF Done:  E(RB3LYP) =  -303.714609348     A.U. after    1 cycles

  Exact polarizability: 104.409  -5.608  72.472  -0.001   0.002  44.610
 Approx polarizability: 156.431 -15.817 115.421   0.003   0.007  64.065

                      1                      2                      3
                      A                      A                      A
 Frequencies --     77.8312               215.4425               246.1839
 Red. masses --      2.8053                 2.3306                 3.2077
 Frc consts  --      0.0100                 0.0637                 0.1145
 IR Inten    --      2.4214                 0.7194                 2.2059

                      4                      5                      6
                      A                      A                      A
 Frequencies --    494.8861               594.6848               664.0972
 Red. masses --      3.5060                 2.3718                 3.4104
 Frc consts  --      0.5059                 0.4942                 0.8862
 IR Inten    --      0.1110                11.0754                20.5848

                      7                      8                      9
                      A                      A                      A
 Frequencies --    674.1594               708.6687               719.9569
 Red. masses --      2.8954                 2.0103                 1.2378
 Frc consts  --      0.7753                 0.5948                 0.3780
 IR Inten    --     11.5928                 3.4942                21.2884

                     10                     11                     12
                      A                      A                      A
 Frequencies --    804.9780               868.7171               885.2936
 Red. masses --      1.4470                 1.3664                 1.3596
 Frc consts  --      0.5525                 0.6076                 0.6278
 IR Inten    --     26.3220                 6.3116                60.3125

                     13                     14                     15
                      A                      A                      A
 Frequencies --    918.6797               987.0140              1025.4683
 Red. masses --      6.2211                 1.1091                 2.6256
 Frc consts  --      3.0935                 0.6366                 1.6267
 IR Inten    --      3.4630                20.0705                33.0670

                     16                     17                     18
                      A                      A                      A
 Frequencies --   1061.9700              1098.8126              1135.6209
 Red. masses --      1.7557                 1.5058                 2.1149
 Frc consts  --      1.1666                 1.0712                 1.6070
 IR Inten    --     11.6162                24.2051                12.7194

                     19                     20                     21
                      A                      A                      A
 Frequencies --   1250.9574              1302.9655              1314.0541
 Red. masses --      1.6210                 2.0640                 2.4624
 Frc consts  --      1.4946                 2.0646                 2.5052
 IR Inten    --     60.9559                25.6319                28.8829

                     22                     23                     24
                      A                      A                      A
 Frequencies --   1350.2354              1415.5795              1458.5240
 Red. masses --      1.7607                 3.2894                 1.3400
 Frc consts  --      1.8913                 3.8836                 1.6795
 IR Inten    --     12.9777                 1.1588                 9.8741

                     25                     26                     27
                      A                      A                      A
 Frequencies --   1513.0248              1545.7270              1707.0523
 Red. masses --      3.5670                 4.3344                 4.6037
 Frc consts  --      4.8111                 6.1016                 7.9040
 IR Inten    --    135.6323                56.0205               139.3673

                     28                     29                     30
                      A                      A                      A
 Frequencies --   3164.1592              3186.5832              3236.8192
 Red. masses --      1.0586                 1.0938                 1.0962
 Frc consts  --      6.2447                 6.5438                 6.7666
 IR Inten    --      2.3898                 3.3767                 1.5588

                     31                     32                     33
                      A                      A                      A
 Frequencies --   3243.7680              3252.2007              3285.8686
 Red. masses --      1.0950                 1.1161                 1.1025
 Frc consts  --      6.7886                 6.9552                 7.0133
 IR Inten    --      4.6398                 3.9269                 1.1267

 - Thermochemistry -
 -------------------
 Temperature   298.150 Kelvin.  Pressure   1.00000 Atm.
 Atom     1 has atomic number  1 and mass   1.00783

 Molecular mass:    94.05310 amu.
 Principal axes and moments of inertia in atomic units:
                           1         2         3
     Eigenvalues --   218.31618 860.899041079.21506
           X            0.99996   0.00855  -0.00002
           Y           -0.00855   0.99996   0.00002
           Z            0.00002  -0.00002   1.00000
 This molecule is an asymmetric top.
 Rotational symmetry number  1.
 Rotational temperatures (Kelvin)      0.39674     0.10061     0.08026
 Rotational constants (GHZ):           8.26664     2.09634     1.67227
 Zero-point vibrational energy     271612.0 (Joules/Mol)
                                   64.91683 (Kcal/Mol)
 Warning -- explicit consideration of   5 degrees of freedom as
           vibrations may cause significant error
 Vibrational temperatures:    111.98   309.97   354.20   712.03   855.62
          (Kelvin)            955.49   969.96  1019.62  1035.86  1158.18
                             1249.89  1273.74  1321.78  1420.09  1475.42
                             1527.94  1580.95  1633.91  1799.85  1874.68
                             1890.63  1942.69  2036.70  2098.49  2176.91
                             2223.96  2456.07  4552.52  4584.78  4657.06
                             4667.06  4679.19  4727.63

 Zero-point correction=                           0.103452 (Hartree/Particle)
 Thermal correction to Energy=                    0.109408
 Thermal correction to Enthalpy=                  0.110352
 Thermal correction to Gibbs Free Energy=         0.073473
 Sum of electronic and zero-point Energies=           -303.611158
 Sum of electronic and thermal Energies=              -303.605201
 Sum of electronic and thermal Enthalpies=            -303.604257
 Sum of electronic and thermal Free Energies=         -303.641136

                     E (Thermal)             CV                S
                      KCal/Mol        Cal/Mol-Kelvin    Cal/Mol-Kelvin
 Total                   68.655             21.915             77.619
 Electronic               0.000              0.000              0.000
 Translational            0.889              2.981             39.535
 Rotational               0.889              2.981             26.808
 Vibrational             66.877             15.954             11.275
 Vibration     1          0.599              1.964              3.945
 Vibration     2          0.645              1.817              1.997
 Vibration     3          0.661              1.769              1.758
 Vibration     4          0.850              1.261              0.671
 Vibration     5          0.952              1.043              0.459

                           ! Non-Optimized Parameters !
 Normal termination of Gaussian 16 at Thu Apr 21 16:36:37 2022.
 Gaussian 16:  ES64L-G16RevA.03 25-Dec-2016

 ----------------------------------------------------------------------
 #P B3LYP/6-311++G(d,p) Geom=Allcheck SCF=Tight EmpiricalDispersion=GD3
 BJ Pop=CHELPG SP IOp(6/33=2)
 ----------------------------------------------------------------------

 Structure from the checkpoint file:  "1VI-4.chk"
 -----------
 1VI geo opt
 -----------
 Charge =  0 Multiplicity = 1

                         Standard orientation:
 ---------------------------------------------------------------------
 Center     Atomic      Atomic             Coordinates (Angstroms)
 Number     Number       Type             X           Y           Z
 ---------------------------------------------------------------------
      1          1           0       -3.609395   -0.033967    0.000580
      2          6           0       -2.595193    0.339915    0.000558
      3          1           0       -2.458702    1.413282    0.001246
      4          6           0       -1.579251   -0.519541   -0.000266
      5          1           0       -1.745905   -1.590193   -0.000558
      6          7           0       -0.216470   -0.186930   -0.000720
      7          6           0        0.817687   -1.099203   -0.000010
      8          1           0        0.631641   -2.162659   -0.000029
      9          7           0        1.989004   -0.517633    0.000640
     10          6           0        1.723787    0.838510    0.000114
     11          1           0        2.519530    1.566357   -0.000013
     12          6           0        0.375606    1.067619   -0.000387
     13          1           0       -0.200729    1.975318   -0.000723
 ---------------------------------------------------------------------

 SCF Done:  E(RB3LYP) =  -303.714609348     A.U. after   13 cycles

 The electronic state is 1-A.
 Alpha  occ. eigenvalues --  -14.39297 -14.30446 -10.23906 -10.23583 -10.20913
 Alpha  occ. eigenvalues --  -10.19578 -10.18650  -1.03714  -0.90892  -0.78629
 Alpha  occ. eigenvalues --   -0.75949  -0.65310  -0.61351  -0.58274  -0.54514
 Alpha  occ. eigenvalues --   -0.47664  -0.46129  -0.46062  -0.44141  -0.42539
 Alpha  occ. eigenvalues --   -0.40078  -0.34330  -0.28396  -0.26149  -0.24510
 Alpha virt. eigenvalues --   -0.04148  -0.01014   0.00140   0.01162   0.01699
 Alpha virt. eigenvalues --    0.02792   0.03861   0.04457   0.04797   0.05605
 Alpha virt. eigenvalues --    0.06288   0.07490   0.08348   0.09820   0.09937

 Mulliken charges:
               1
     1  H    0.159836
     2  C   -0.406976
     3  H    0.113554
     4  C   -0.005176
     5  H    0.155670
     6  N    0.108354
     7  C   -0.010062
     8  H    0.144539
     9  N   -0.178911
    10  C   -0.246145
    11  H    0.161258
    12  C   -0.113859
    13  H    0.117919
 Sum of Mulliken charges =  -0.00000

 Dipole moment (field-independent basis, Debye):
    X=             -3.1798    Y=              0.4449    Z=             -0.0012  Tot=              3.2108
 Quadrupole moment (field-independent basis, Debye-Ang):
   XX=            -45.3610   YY=            -35.5506   ZZ=            -45.6548
   XY=              3.8406   XZ=             -0.0040   YZ=              0.0019

 ESP charges:
               1
     1  H    0.132805
     2  C   -0.295095
     3  H    0.147704
     4  C   -0.179477
     5  H    0.144084
     6  N    0.271765
     7  C    0.139325
     8  H    0.089020
     9  N   -0.545657
    10  C    0.238092
    11  H    0.056192
    12  C   -0.384323
    13  H    0.185567
 Sum of ESP charges =   0.00000

 Normal termination of Gaussian 16 at Thu Apr 21 16:37:37 2022.
