 Gaussian 16, Revision A.03,

 ---------------------------------------------------------------------
 #n B3LYP/6-311++G(d,p) Opt freq EmpiricalDispersion=GD3BJ IOp(6/33=2)
 ---------------------------------------------------------------------

 -----------
 1VI geo opt
 -----------
 Symbolic Z-matrix:
 Charge =  0 Multiplicity = 1

 SCF Done:  E(RB3LYP) =  -303.711336231     A.U. after   13 cycles
 SCF Done:  E(RB3LYP) =  -303.712652841     A.U. after   11 cycles
 SCF Done:  E(RB3LYP) =  -303.712985526     A.U. after   10 cycles
 SCF Done:  E(RB3LYP) =  -303.713084105     A.U. after   10 cycles
 SCF Done:  E(RB3LYP) =  -303.713135484     A.U. after    9 cycles
 SCF Done:  E(RB3LYP) =  -303.713226928     A.U. after   10 cycles
 SCF Done:  E(RB3LYP) =  -303.713248349     A.U. after   10 cycles
 SCF Done:  E(RB3LYP) =  -303.713267048     A.U. after   10 cycles
 SCF Done:  E(RB3LYP) =  -303.713281056     A.U. after   10 cycles
 SCF Done:  E(RB3LYP) =  -303.713284232     A.U. after    9 cycles
 SCF Done:  E(RB3LYP) =  -303.713285663     A.U. after    9 cycles
 SCF Done:  E(RB3LYP) =  -303.713286063     A.U. after    9 cycles
 SCF Done:  E(RB3LYP) =  -303.713286230     A.U. after    9 cycles
 SCF Done:  E(RB3LYP) =  -303.713286324     A.U. after    8 cycles
 SCF Done:  E(RB3LYP) =  -303.713286436     A.U. after    9 cycles
 SCF Done:  E(RB3LYP) =  -303.713286491     A.U. after    8 cycles
 SCF Done:  E(RB3LYP) =  -303.713286514     A.U. after    8 cycles
 SCF Done:  E(RB3LYP) =  -303.713286526     A.U. after    8 cycles
 Optimization completed.
    -- Stationary point found.
 Normal termination of Gaussian 16 at Thu Apr 21 16:33:38 2022.

 ----------------------------------------------------------------------
 #N Geom=AllCheck Guess=TCheck SCRF=Check Test GenChk RB3LYP/6-311++G(d
 ,p) Freq
 ----------------------------------------------------------------------

 Structure from the checkpoint file:  "1VI-3.chk"
 -----------
 1VI geo opt
 -----------
 Charge =  0 Multiplicity = 1

 SCF Done:  E(RB3LYP) =  -303.713286526     A.U. after    1 cycles

  Exact polarizability: 103.299  -5.355  71.944   0.002  -0.002  44.582
 Approx polarizability: 151.220  -9.417 115.799   0.004  -0.006  63.993

                      1                      2                      3
                      A                      A                      A
 Frequencies --      9.4430               200.7010               246.4118
 Red. masses --      2.2200                 2.7619                 3.3217
 Frc consts  --      0.0001                 0.0655                 0.1188
 IR Inten    --      0.3674                 0.1414                 1.0380

                      4                      5                      6
                      A                      A                      A
 Frequencies --    498.7011               596.6276               658.8652
 Red. masses --      3.3002                 2.4537                 3.2826
 Frc consts  --      0.4836                 0.5146                 0.8396
 IR Inten    --      0.5003                14.2502                14.8305

                      7                      8                      9
                      A                      A                      A
 Frequencies --    668.8557               709.3952               723.7200
 Red. masses --      3.0274                 1.8795                 1.2764
 Frc consts  --      0.7980                 0.5573                 0.3939
 IR Inten    --     13.3516                 0.8731                33.9182

                     10                     11                     12
                      A                      A                      A
 Frequencies --    801.9922               862.8269               887.5419
 Red. masses --      1.4836                 1.3624                 1.3625
 Frc consts  --      0.5622                 0.5976                 0.6323
 IR Inten    --     19.9746                 3.4403                62.2337

                     13                     14                     15
                      A                      A                      A
 Frequencies --    918.2766               991.2922              1018.1506
 Red. masses --      6.1380                 1.1067                 2.4349
 Frc consts  --      3.0495                 0.6408                 1.4872
 IR Inten    --      7.8406                20.8633                18.6779

                     16                     17                     18
                      A                      A                      A
 Frequencies --   1066.6588              1109.5176              1132.7222
 Red. masses --      1.7763                 1.4209                 2.2479
 Frc consts  --      1.1908                 1.0306                 1.6993
 IR Inten    --     29.9743                14.9196                20.3032

                     19                     20                     21
                      A                      A                      A
 Frequencies --   1255.2023              1275.8201              1321.3375
 Red. masses --      2.6489                 1.5857                 2.0338
 Frc consts  --      2.4589                 1.5207                 2.0921
 IR Inten    --     63.1599                 6.1404                40.7914

                     22                     23                     24
                      A                      A                      A
 Frequencies --   1356.9060              1410.0358              1459.5838
 Red. masses --      1.8733                 3.5122                 1.2948
 Frc consts  --      2.0321                 4.1143                 1.6252
 IR Inten    --     20.6066                15.5364                 5.4498

                     25                     26                     27
                      A                      A                      A
 Frequencies --   1512.6474              1544.5819              1706.7070
 Red. masses --      3.4005                 4.5400                 4.5918
 Frc consts  --      4.5843                 6.3816                 7.8805
 IR Inten    --    150.5585                 0.3225               132.9538

                     28                     29                     30
                      A                      A                      A
 Frequencies --   3164.6276              3189.2951              3244.0930
 Red. masses --      1.0590                 1.0939                 1.0918
 Frc consts  --      6.2485                 6.5557                 6.7696
 IR Inten    --      2.4719                 4.0787                 3.1073

                     31                     32                     33
                      A                      A                      A
 Frequencies --   3250.7772              3259.5089              3270.6013
 Red. masses --      1.1118                 1.1002                 1.1061
 Frc consts  --      6.9223                 6.8870                 6.9709
 IR Inten    --      4.1543                 0.1750                 1.2538

 - Thermochemistry -
 -------------------
 Temperature   298.150 Kelvin.  Pressure   1.00000 Atm.
 Atom     1 has atomic number  1 and mass   1.00783

 Molecular mass:    94.05310 amu.
 Principal axes and moments of inertia in atomic units:
                           1         2         3
     Eigenvalues --   221.11254 855.718861076.83134
           X            0.99971  -0.02398  -0.00000
           Y            0.02398   0.99971  -0.00002
           Z            0.00000   0.00002   1.00000
 This molecule is an asymmetric top.
 Rotational symmetry number  1.
 Rotational temperatures (Kelvin)      0.39172     0.10122     0.08043
 Rotational constants (GHZ):           8.16209     2.10904     1.67597
 Zero-point vibrational energy     271094.3 (Joules/Mol)
                                   64.79309 (Kcal/Mol)
 Warning -- explicit consideration of   5 degrees of freedom as
           vibrations may cause significant error
 Vibrational temperatures:     13.59   288.76   354.53   717.52   858.41
          (Kelvin)            947.96   962.33  1020.66  1041.27  1153.89
                             1241.42  1276.97  1321.20  1426.25  1464.89
                             1534.68  1596.35  1629.73  1805.96  1835.62
                             1901.11  1952.29  2028.73  2100.02  2176.36
                             2222.31  2455.57  4553.19  4588.68  4667.53
                             4677.14  4689.71  4705.67

 Zero-point correction=                           0.103254 (Hartree/Particle)
 Thermal correction to Energy=                    0.109379
 Thermal correction to Enthalpy=                  0.110323
 Thermal correction to Gibbs Free Energy=         0.071395
 Sum of electronic and zero-point Energies=           -303.610032
 Sum of electronic and thermal Energies=              -303.603908
 Sum of electronic and thermal Enthalpies=            -303.602964
 Sum of electronic and thermal Free Energies=         -303.641892

                     E (Thermal)             CV                S
                      KCal/Mol        Cal/Mol-Kelvin    Cal/Mol-Kelvin
 Total                   68.636             21.969             81.931
 Electronic               0.000              0.000              0.000
 Translational            0.889              2.981             39.535
 Rotational               0.889              2.981             26.813
 Vibrational             66.859             16.007             15.583
 Vibration     1          0.593              1.987              8.125
 Vibration     2          0.638              1.839              2.127
 Vibration     3          0.661              1.769              1.756
 Vibration     4          0.854              1.253              0.661
 Vibration     5          0.954              1.039              0.455

                           ! Non-Optimized Parameters !
 Normal termination of Gaussian 16 at Thu Apr 21 16:34:02 2022.
 Gaussian 16:  ES64L-G16RevA.03 25-Dec-2016

 ----------------------------------------------------------------------
 #P B3LYP/6-311++G(d,p) Geom=Allcheck SCF=Tight EmpiricalDispersion=GD3
 BJ Pop=CHELPG SP IOp(6/33=2)
 ----------------------------------------------------------------------

 Structure from the checkpoint file:  "1VI-3.chk"
 -----------
 1VI geo opt
 -----------
 Charge =  0 Multiplicity = 1

                         Standard orientation:
 ---------------------------------------------------------------------
 Center     Atomic      Atomic             Coordinates (Angstroms)
 Number     Number       Type             X           Y           Z
 ---------------------------------------------------------------------
      1          1           0        3.607258    0.074346    0.000137
      2          6           0        2.596295   -0.308030    0.000410
      3          1           0        2.470248   -1.382692    0.001274
      4          6           0        1.574872    0.544963   -0.000320
      5          1           0        1.737647    1.615845   -0.001106
      6          7           0        0.211127    0.205594   -0.000221
      7          6           0       -0.370097   -1.043212   -0.000271
      8          1           0        0.211507   -1.950368   -0.000647
      9          7           0       -1.677841   -0.973658   -0.000027
     10          6           0       -1.981559    0.373978    0.000277
     11          1           0       -3.002417    0.720670    0.000491
     12          6           0       -0.836307    1.118677    0.000105
     13          1           0       -0.656465    2.180394    0.000384
 ---------------------------------------------------------------------

 SCF Done:  E(RB3LYP) =  -303.713286526     A.U. after   13 cycles

 The electronic state is 1-A.
 Alpha  occ. eigenvalues --  -14.39228 -14.30499 -10.23960 -10.23328 -10.21026
 Alpha  occ. eigenvalues --  -10.19319 -10.18710  -1.03600  -0.90779  -0.79042
 Alpha  occ. eigenvalues --   -0.75055  -0.66151  -0.61253  -0.58024  -0.53866
 Alpha  occ. eigenvalues --   -0.48626  -0.45973  -0.45682  -0.43771  -0.42331
 Alpha  occ. eigenvalues --   -0.40545  -0.34261  -0.28225  -0.26392  -0.24215
 Alpha virt. eigenvalues --   -0.04304  -0.01076   0.00289   0.01051   0.02006
 Alpha virt. eigenvalues --    0.02776   0.03855   0.03882   0.05123   0.06006
 Alpha virt. eigenvalues --    0.06033   0.07280   0.08586   0.09388   0.09463

 Mulliken charges:
               1
     1  H    0.149177
     2  C   -0.424181
     3  H    0.120030
     4  C    0.033328
     5  H    0.151667
     6  N    0.105440
     7  C   -0.169026
     8  H    0.140187
     9  N   -0.156180
    10  C   -0.139037
    11  H    0.167233
    12  C   -0.107746
    13  H    0.129108
 Sum of Mulliken charges =  -0.00000

 Dipole moment (field-independent basis, Debye):
    X=              2.7582    Y=              1.9672    Z=             -0.0002  Tot=              3.3878
 Quadrupole moment (field-independent basis, Debye-Ang):
   XX=            -41.5641   YY=            -38.4943   ZZ=            -45.6434
   XY=             -4.8258   XZ=             -0.0014   YZ=             -0.0012

 ESP charges:
               1
     1  H    0.162349
     2  C   -0.392583
     3  H    0.165687
     4  C   -0.144423
     5  H    0.172167
     6  N    0.257886
     7  C    0.190495
     8  H    0.092048
     9  N   -0.581817
    10  C    0.280281
    11  H    0.050067
    12  C   -0.437897
    13  H    0.185740
 Sum of ESP charges =  -0.00000

 Normal termination of Gaussian 16 at Thu Apr 21 16:35:03 2022.
