 Gaussian 16, Revision A.03,

 ---------------------------------------------------------------------
 #n B3LYP/6-311++G(d,p) Opt freq EmpiricalDispersion=GD3BJ IOp(6/33=2)
 ---------------------------------------------------------------------

 -----------
 1VI geo opt
 -----------
 Symbolic Z-matrix:
 Charge =  0 Multiplicity = 1

 SCF Done:  E(RB3LYP) =  -303.712177016     A.U. after   13 cycles
 SCF Done:  E(RB3LYP) =  -303.713034167     A.U. after   11 cycles
 SCF Done:  E(RB3LYP) =  -303.713248826     A.U. after   10 cycles
 SCF Done:  E(RB3LYP) =  -303.713275380     A.U. after    9 cycles
 SCF Done:  E(RB3LYP) =  -303.713286213     A.U. after    8 cycles
 Optimization completed.
    -- Stationary point found.
 Normal termination of Gaussian 16 at Thu Apr 21 16:28:13 2022.

 ----------------------------------------------------------------------
 #N Geom=AllCheck Guess=TCheck SCRF=Check Test GenChk RB3LYP/6-311++G(d
 ,p) Freq
 ----------------------------------------------------------------------

 Structure from the checkpoint file:  "1VI-1.chk"
 -----------
 1VI geo opt
 -----------
 Charge =  0 Multiplicity = 1

 SCF Done:  E(RB3LYP) =  -303.713286213     A.U. after    1 cycles

  Exact polarizability: 103.298   5.358  71.945   0.001  -0.002  44.582
 Approx polarizability: 151.211   9.423 115.802   0.012  -0.011  63.994

                      1                      2                      3
                      A                      A                      A
 Frequencies --     11.2317               200.8015               246.3549
 Red. masses --      2.2202                 2.7609                 3.3219
 Frc consts  --      0.0002                 0.0656                 0.1188
 IR Inten    --      0.3641                 0.1411                 1.0381

                      4                      5                      6
                      A                      A                      A
 Frequencies --    498.6151               596.6503               658.8708
 Red. masses --      3.3009                 2.4534                 3.2834
 Frc consts  --      0.4835                 0.5146                 0.8398
 IR Inten    --      0.4953                14.2249                14.7775

                      7                      8                      9
                      A                      A                      A
 Frequencies --    668.7203               709.4475               723.6400
 Red. masses --      3.0274                 1.8802                 1.2765
 Frc consts  --      0.7977                 0.5576                 0.3938
 IR Inten    --     13.3677                 0.8928                33.9220

                     10                     11                     12
                      A                      A                      A
 Frequencies --    801.9301               862.7587               887.5463
 Red. masses --      1.4836                 1.3624                 1.3619
 Frc consts  --      0.5621                 0.5975                 0.6321
 IR Inten    --     19.9911                 3.4438                62.3212

                     13                     14                     15
                      A                      A                      A
 Frequencies --    918.2954               991.3777              1018.2067
 Red. masses --      6.1373                 1.1069                 2.4339
 Frc consts  --      3.0492                 0.6410                 1.4867
 IR Inten    --      7.8219                20.7990                18.6256

                     16                     17                     18
                      A                      A                      A
 Frequencies --   1066.6120              1109.4895              1132.8902
 Red. masses --      1.7779                 1.4163                 2.2562
 Frc consts  --      1.1917                 1.0272                 1.7061
 IR Inten    --     30.0399                15.1204                20.1227

                     19                     20                     21
                      A                      A                      A
 Frequencies --   1255.2329              1275.8603              1321.2375
 Red. masses --      2.6428                 1.5902                 2.0330
 Frc consts  --      2.4534                 1.5251                 2.0910
 IR Inten    --     63.4235                 6.0694                40.8462

                     22                     23                     24
                      A                      A                      A
 Frequencies --   1357.0028              1409.9026              1459.5643
 Red. masses --      1.8747                 3.5086                 1.2943
 Frc consts  --      2.0340                 4.1093                 1.6245
 IR Inten    --     20.8270                15.4549                 5.4459

                     25                     26                     27
                      A                      A                      A
 Frequencies --   1512.5912              1544.4287              1706.6463
 Red. masses --      3.3993                 4.5382                 4.5905
 Frc consts  --      4.5823                 6.3778                 7.8776
 IR Inten    --    150.2895                 0.3312               132.8081

                     28                     29                     30
                      A                      A                      A
 Frequencies --   3164.6500              3189.1696              3244.0379
 Red. masses --      1.0589                 1.0939                 1.0918
 Frc consts  --      6.2483                 6.5553                 6.7696
 IR Inten    --      2.4584                 4.0668                 3.1154

                     31                     32                     33
                      A                      A                      A
 Frequencies --   3250.7093              3259.5343              3270.6638
 Red. masses --      1.1119                 1.1001                 1.1060
 Frc consts  --      6.9227                 6.8866                 6.9708
 IR Inten    --      4.1778                 0.1690                 1.2483

 - Thermochemistry -
 -------------------
 Temperature   298.150 Kelvin.  Pressure   1.00000 Atm.
 Atom     1 has atomic number  1 and mass   1.00783

 Molecular mass:    94.05310 amu.
 Principal axes and moments of inertia in atomic units:
                           1         2         3
     Eigenvalues --   221.09683 855.833711076.92959
           X            0.99971   0.02399  -0.00002
           Y           -0.02399   0.99971  -0.00001
           Z            0.00002   0.00001   1.00000
 This molecule is an asymmetric top.
 Rotational symmetry number  1.
 Rotational temperatures (Kelvin)      0.39175     0.10120     0.08043
 Rotational constants (GHZ):           8.16267     2.10875     1.67582
 Zero-point vibrational energy     271101.7 (Joules/Mol)
                                   64.79487 (Kcal/Mol)
 Warning -- explicit consideration of   5 degrees of freedom as
           vibrations may cause significant error
 Vibrational temperatures:     16.16   288.91   354.45   717.40   858.45
          (Kelvin)            947.97   962.14  1020.74  1041.16  1153.80
                             1241.32  1276.98  1321.22  1426.37  1464.97
                             1534.62  1596.31  1629.98  1806.00  1835.68
                             1900.97  1952.42  2028.54  2099.99  2176.28
                             2222.09  2455.48  4553.23  4588.50  4667.45
                             4677.05  4689.74  4705.76

 Zero-point correction=                           0.103257 (Hartree/Particle)
 Thermal correction to Energy=                    0.109378
 Thermal correction to Enthalpy=                  0.110322
 Thermal correction to Gibbs Free Energy=         0.071557
 Sum of electronic and zero-point Energies=           -303.610029
 Sum of electronic and thermal Energies=              -303.603909
 Sum of electronic and thermal Enthalpies=            -303.602964
 Sum of electronic and thermal Free Energies=         -303.641729

                     E (Thermal)             CV                S
                      KCal/Mol        Cal/Mol-Kelvin    Cal/Mol-Kelvin
 Total                   68.635             21.969             81.587
 Electronic               0.000              0.000              0.000
 Translational            0.889              2.981             39.535
 Rotational               0.889              2.981             26.813
 Vibrational             66.858             16.008             15.238
 Vibration     1          0.593              1.987              7.780
 Vibration     2          0.638              1.839              2.126
 Vibration     3          0.661              1.769              1.757
 Vibration     4          0.854              1.253              0.662
 Vibration     5          0.954              1.039              0.455

                           ! Non-Optimized Parameters !
 Normal termination of Gaussian 16 at Thu Apr 21 16:28:39 2022.
 Gaussian 16:  ES64L-G16RevA.03 25-Dec-2016

 ----------------------------------------------------------------------
 #P B3LYP/6-311++G(d,p) Geom=Allcheck SCF=Tight EmpiricalDispersion=GD3
 BJ Pop=CHELPG SP IOp(6/33=2)
 ----------------------------------------------------------------------

 Structure from the checkpoint file:  "1VI-1.chk"
 -----------
 1VI geo opt
 -----------
 Charge =  0 Multiplicity = 1

                         Standard orientation:
 ---------------------------------------------------------------------
 Center     Atomic      Atomic             Coordinates (Angstroms)
 Number     Number       Type             X           Y           Z
 ---------------------------------------------------------------------
      1          1           0       -3.607276    0.074752    0.002169
      2          6           0       -2.596440   -0.308077    0.001387
      3          1           0       -2.470865   -1.382758    0.002532
      4          6           0       -1.575058    0.544941   -0.000521
      5          1           0       -1.737675    1.615864   -0.001413
      6          7           0       -0.211072    0.205811   -0.001731
      7          6           0        0.370100   -1.043128   -0.001126
      8          1           0       -0.211919   -1.950012   -0.002314
      9          7           0        1.677814   -0.973722    0.000401
     10          6           0        1.981750    0.373718    0.001341
     11          1           0        3.002470    0.720843    0.002531
     12          6           0        0.836508    1.118603   -0.000036
     13          1           0        0.656915    2.180349   -0.000470
 ---------------------------------------------------------------------

 SCF Done:  E(RB3LYP) =  -303.713286213     A.U. after   13 cycles

 The electronic state is 1-A.
 Alpha  occ. eigenvalues --  -14.39227 -14.30499 -10.23963 -10.23326 -10.21024
 Alpha  occ. eigenvalues --  -10.19318 -10.18713  -1.03597  -0.90779  -0.79043
 Alpha  occ. eigenvalues --   -0.75052  -0.66150  -0.61252  -0.58024  -0.53866
 Alpha  occ. eigenvalues --   -0.48625  -0.45971  -0.45679  -0.43773  -0.42336
 Alpha  occ. eigenvalues --   -0.40545  -0.34262  -0.28224  -0.26395  -0.24213
 Alpha virt. eigenvalues --   -0.04304  -0.01077   0.00289   0.01051   0.02007
 Alpha virt. eigenvalues --    0.02776   0.03854   0.03883   0.05123   0.06006
 Alpha virt. eigenvalues --    0.06033   0.07280   0.08586   0.09389   0.09462

 Mulliken charges:
               1
     1  H    0.149139
     2  C   -0.424107
     3  H    0.120105
     4  C    0.033362
     5  H    0.151693
     6  N    0.105293
     7  C   -0.169042
     8  H    0.140144
     9  N   -0.156157
    10  C   -0.139062
    11  H    0.167182
    12  C   -0.107640
    13  H    0.129092
 Sum of Mulliken charges =  -0.00000

 Dipole moment (field-independent basis, Debye):
    X=             -2.7590    Y=              1.9674    Z=             -0.0009  Tot=              3.3886
 Quadrupole moment (field-independent basis, Debye-Ang):
   XX=            -41.5607   YY=            -38.4958   ZZ=            -45.6436
   XY=              4.8276   XZ=             -0.0010   YZ=              0.0003

 ESP charges:
               1
     1  H    0.162295
     2  C   -0.392495
     3  H    0.165683
     4  C   -0.144127
     5  H    0.172087
     6  N    0.257091
     7  C    0.191012
     8  H    0.092003
     9  N   -0.581928
    10  C    0.280161
    11  H    0.050063
    12  C   -0.437549
    13  H    0.185705
 Sum of ESP charges =  -0.00000

 Normal termination of Gaussian 16 at Thu Apr 21 16:29:40 2022.
