 Gaussian 16, Revision A.03,

 ---------------------------------------------------------------------
 #n B3LYP/6-311++G(d,p) Opt freq EmpiricalDispersion=GD3BJ IOp(6/33=2)
 ---------------------------------------------------------------------

 -----------
 4AS geo opt
 -----------
 Symbolic Z-matrix:
 Charge =  0 Multiplicity = 1

 SCF Done:  E(RB3LYP) =  -365.136680762     A.U. after   14 cycles
 SCF Done:  E(RB3LYP) =  -365.138733198     A.U. after   12 cycles
 SCF Done:  E(RB3LYP) =  -365.139051909     A.U. after   12 cycles
 SCF Done:  E(RB3LYP) =  -365.139338691     A.U. after   12 cycles
 SCF Done:  E(RB3LYP) =  -365.139416020     A.U. after   12 cycles
 SCF Done:  E(RB3LYP) =  -365.139491408     A.U. after   12 cycles
 SCF Done:  E(RB3LYP) =  -365.139498347     A.U. after   10 cycles
 SCF Done:  E(RB3LYP) =  -365.139501095     A.U. after   10 cycles
 SCF Done:  E(RB3LYP) =  -365.139501953     A.U. after   10 cycles
 SCF Done:  E(RB3LYP) =  -365.139502006     A.U. after    8 cycles
 Optimization completed.
    -- Stationary point found.
 Normal termination of Gaussian 16 at Thu Apr 21 16:30:45 2022.

 ----------------------------------------------------------------------
 #N Geom=AllCheck Guess=TCheck SCRF=Check Test GenChk RB3LYP/6-311++G(d
 ,p) Freq
 ----------------------------------------------------------------------

 Structure from the checkpoint file:  "4AS-1.chk"
 -----------
 4AS geo opt
 -----------
 Charge =  0 Multiplicity = 1

 SCF Done:  E(RB3LYP) =  -365.139502006     A.U. after    1 cycles

  Exact polarizability: 173.732   6.478 103.071   0.359  -0.052  60.198
 Approx polarizability: 262.841  15.198 173.351   1.521  -0.150  89.352

                      1                      2                      3
                      A                      A                      A
 Frequencies --     53.0814               145.0873               211.3911
 Red. masses --      2.7520                 2.6044                 3.2820
 Frc consts  --      0.0046                 0.0323                 0.0864
 IR Inten    --      0.2010                 3.6171                 0.7886

                      4                      5                      6
                      A                      A                      A
 Frequencies --    300.5716               310.8344               377.3634
 Red. masses --      1.0330                 2.8322                 3.2349
 Frc consts  --      0.0550                 0.1612                 0.2714
 IR Inten    --     17.4483                 2.2422                 0.2181

                      7                      8                      9
                      A                      A                      A
 Frequencies --    415.9307               428.6062               487.6891
 Red. masses --      2.9072                 4.5751                 1.9560
 Frc consts  --      0.2963                 0.4952                 0.2741
 IR Inten    --      0.6950                 3.4270               104.1802

                     10                     11                     12
                      A                      A                      A
 Frequencies --    534.3116               556.6236               651.9964
 Red. masses --      2.8402                 1.5166                 1.7081
 Frc consts  --      0.4777                 0.2769                 0.4278
 IR Inten    --     87.3306               233.0428                 0.8873

                     13                     14                     15
                      A                      A                      A
 Frequencies --    659.1788               743.4191               760.4757
 Red. masses --      6.8366                 3.3867                 2.9677
 Frc consts  --      1.7502                 1.1028                 1.0112
 IR Inten    --      0.4108                 0.1804                 1.6999

                     16                     17                     18
                      A                      A                      A
 Frequencies --    815.9643               842.8003               855.1184
 Red. masses --      1.2652                 1.8836                 4.7825
 Frc consts  --      0.4963                 0.7883                 2.0604
 IR Inten    --      0.0745                60.8870                 6.6168

                     19                     20                     21
                      A                      A                      A
 Frequencies --    908.2716               947.2539               960.2903
 Red. masses --      1.3764                 1.3625                 1.3517
 Frc consts  --      0.6690                 0.7203                 0.7344
 IR Inten    --     48.8699                 0.2493                 0.0090

                     22                     23                     24
                      A                      A                      A
 Frequencies --   1023.5562              1027.0399              1045.4337
 Red. masses --      1.1334                 2.7373                 1.5117
 Frc consts  --      0.6996                 1.7011                 0.9735
 IR Inten    --     16.8538                 0.1872                 2.4932

                     25                     26                     27
                      A                      A                      A
 Frequencies --   1086.4242              1155.2706              1202.7331
 Red. masses --      1.4209                 1.2378                 1.1745
 Frc consts  --      0.9881                 0.9733                 1.0010
 IR Inten    --      2.2826                 8.1334                37.1520

                     28                     29                     30
                      A                      A                      A
 Frequencies --   1237.2173              1309.0482              1320.6379
 Red. masses --      2.2456                 3.3734                 1.8466
 Frc consts  --      2.0252                 3.4058                 1.8975
 IR Inten    --      3.4292               106.3857                 2.7524

                     31                     32                     33
                      A                      A                      A
 Frequencies --   1351.4491              1360.6215              1450.5435
 Red. masses --      1.8551                 1.6877                 1.5311
 Frc consts  --      1.9962                 1.8408                 1.8981
 IR Inten    --     13.1632                 1.2463                10.9303

                     34                     35                     36
                      A                      A                      A
 Frequencies --   1473.5762              1549.9128              1611.0554
 Red. masses --      2.0879                 2.6095                 5.6266
 Frc consts  --      2.6711                 3.6933                 8.6043
 IR Inten    --      2.8761                92.5422                 4.1318

                     37                     38                     39
                      A                      A                      A
 Frequencies --   1650.7793              1664.8187              1683.0935
 Red. masses --      2.1672                 1.7223                 4.2809
 Frc consts  --      3.4796                 2.8126                 7.1450
 IR Inten    --     26.5468               250.9062                13.9669

                     40                     41                     42
                      A                      A                      A
 Frequencies --   3125.6152              3141.1700              3152.8226
 Red. masses --      1.0840                 1.0641                 1.0867
 Frc consts  --      6.2393                 6.1860                 6.3646
 IR Inten    --     17.4852                 2.6065                19.5562

                     43                     44                     45
                      A                      A                      A
 Frequencies --   3155.2337              3170.0448              3182.8425
 Red. masses --      1.0880                 1.0942                 1.0924
 Frc consts  --      6.3816                 6.4783                 6.5200
 IR Inten    --     14.2078                20.9343                 7.9667

                     46                     47                     48
                      A                      A                      A
 Frequencies --   3221.6395              3572.9344              3672.2528
 Red. masses --      1.1149                 1.0472                 1.0995
 Frc consts  --      6.8177                 7.8763                 8.7359
 IR Inten    --     14.7955                30.9922                17.7327

 - Thermochemistry -
 -------------------
 Temperature   298.150 Kelvin.  Pressure   1.00000 Atm.
 Atom     1 has atomic number  1 and mass   1.00783

 Molecular mass:   119.07350 amu.
 Principal axes and moments of inertia in atomic units:
                           1         2         3
     Eigenvalues --   358.503001826.784902183.92224
           X            0.99999   0.00294  -0.00346
           Y           -0.00293   0.99999   0.00133
           Z            0.00346  -0.00132   0.99999
 This molecule is an asymmetric top.
 Rotational symmetry number  1.
 Rotational temperatures (Kelvin)      0.24160     0.04741     0.03966
 Rotational constants (GHZ):           5.03410     0.98793     0.82638
 Zero-point vibrational energy     392160.0 (Joules/Mol)
                                   93.72848 (Kcal/Mol)
 Warning -- explicit consideration of  11 degrees of freedom as
           vibrations may cause significant error
 Vibrational temperatures:     76.37   208.75   304.14   432.46   447.22
          (Kelvin)            542.94   598.43   616.67   701.68   768.76
                              800.86   938.08   948.41  1069.61  1094.15
                             1173.99  1212.60  1230.32  1306.80  1362.89
                             1381.64  1472.67  1477.68  1504.15  1563.12
                             1662.18  1730.46  1780.08  1883.43  1900.10
                             1944.43  1957.63  2087.01  2120.15  2229.98
                             2317.95  2375.10  2395.30  2421.60  4497.06
                             4519.44  4536.21  4539.68  4560.99  4579.40
                             4635.22  5140.66  5283.55

 Zero-point correction=                           0.149366 (Hartree/Particle)
 Thermal correction to Energy=                    0.157611
 Thermal correction to Enthalpy=                  0.158555
 Thermal correction to Gibbs Free Energy=         0.116477
 Sum of electronic and zero-point Energies=           -364.990136
 Sum of electronic and thermal Energies=              -364.981891
 Sum of electronic and thermal Enthalpies=            -364.980947
 Sum of electronic and thermal Free Energies=         -365.023025

                     E (Thermal)             CV                S
                      KCal/Mol        Cal/Mol-Kelvin    Cal/Mol-Kelvin
 Total                   98.903             32.236             88.562
 Electronic               0.000              0.000              0.000
 Translational            0.889              2.981             40.238
 Rotational               0.889              2.981             28.749
 Vibrational             97.125             26.274             19.575
 Vibration     1          0.596              1.976              4.699
 Vibration     2          0.616              1.908              2.736
 Vibration     3          0.643              1.823              2.032
 Vibration     4          0.693              1.673              1.414
 Vibration     5          0.700              1.653              1.358
 Vibration     6          0.748              1.518              1.050
 Vibration     7          0.779              1.436              0.906
 Vibration     8          0.790              1.408              0.863
 Vibration     9          0.844              1.277              0.690
 Vibration    10          0.889              1.174              0.578
 Vibration    11          0.912              1.125              0.531

 Optimization completed.
    -- Stationary point found.
 Normal termination of Gaussian 16 at Thu Apr 21 16:31:36 2022.
 Gaussian 16:  ES64L-G16RevA.03 25-Dec-2016

 ----------------------------------------------------------------------
 #P B3LYP/6-311++G(d,p) Geom=Allcheck SCF=Tight EmpiricalDispersion=GD3
 BJ Pop=CHELPG SP IOp(6/33=2)
 ----------------------------------------------------------------------

 Structure from the checkpoint file:  "4AS-1.chk"
 -----------
 4AS geo opt
 -----------
 Charge =  0 Multiplicity = 1

                         Standard orientation:
 ---------------------------------------------------------------------
 Center     Atomic      Atomic             Coordinates (Angstroms)
 Number     Number       Type             X           Y           Z
 ---------------------------------------------------------------------
      1          1           0       -4.470963   -0.195211   -0.010242
      2          6           0       -3.426680   -0.481681   -0.005915
      3          1           0       -3.217242   -1.545491   -0.001159
      4          6           0       -2.461435    0.444378   -0.005799
      5          1           0       -2.760701    1.490470   -0.009905
      6          6           0       -1.011556    0.229305    0.000006
      7          6           0       -0.418617   -1.043797    0.002965
      8          1           0       -1.043409   -1.928954    0.001206
      9          6           0        0.956675   -1.202309    0.007065
     10          1           0        1.384864   -2.199454    0.015006
     11          6           0        1.809364   -0.085748    0.006358
     12          7           0        3.192506   -0.247614    0.064690
     13          1           0        3.742018    0.534754   -0.257605
     14          1           0        3.547386   -1.132227   -0.266142
     15          6           0        1.231134    1.189593    0.005004
     16          1           0        1.868351    2.067771    0.010772
     17          6           0       -0.149549    1.334931    0.001438
     18          1           0       -0.573866    2.333599   -0.001493
 ---------------------------------------------------------------------

 SCF Done:  E(RB3LYP) =  -365.139502006     A.U. after   14 cycles

 The electronic state is 1-A.
 Alpha  occ. eigenvalues --  -14.32893 -10.22072 -10.17642 -10.17630 -10.17527
 Alpha  occ. eigenvalues --  -10.17482 -10.17365 -10.17203 -10.15953  -0.93067
 Alpha  occ. eigenvalues --   -0.85194  -0.78153  -0.75238  -0.71679  -0.62816
 Alpha  occ. eigenvalues --   -0.61525  -0.56299  -0.53008  -0.52165  -0.48088
 Alpha  occ. eigenvalues --   -0.45401  -0.44459  -0.42623  -0.41476  -0.39568
 Alpha  occ. eigenvalues --   -0.38478  -0.35345  -0.34117  -0.33824  -0.27417
 Alpha  occ. eigenvalues --   -0.25947  -0.20281
 Alpha virt. eigenvalues --   -0.03532  -0.01585  -0.01400   0.00191   0.00447
 Alpha virt. eigenvalues --    0.01881   0.02246   0.03833   0.04532   0.04908
 Alpha virt. eigenvalues --    0.05505   0.06352   0.07584   0.07716   0.08236

 Mulliken charges:
               1
     1  H    0.155474
     2  C   -0.354738
     3  H    0.121945
     4  C   -0.298340
     5  H    0.117133
     6  C    1.582761
     7  C   -1.471198
     8  H    0.049083
     9  C    0.047699
    10  H    0.172122
    11  C   -0.442244
    12  N   -0.292658
    13  H    0.238289
    14  H    0.239999
    15  C   -0.367437
    16  H    0.141854
    17  C    0.210297
    18  H    0.149959
 Sum of Mulliken charges =  -0.00000

 Dipole moment (field-independent basis, Debye):
    X=              2.0224    Y=             -0.0966    Z=             -0.9329  Tot=              2.2293
 Quadrupole moment (field-independent basis, Debye-Ang):
   XX=            -45.8670   YY=            -47.5786   ZZ=            -60.7420
   XY=             -0.6173   XZ=             -3.8809   YZ=              0.3327

 ESP charges:
               1
     1  H    0.120151
     2  C   -0.318061
     3  H    0.125169
     4  C   -0.162448
     5  H    0.111203
     6  C    0.211279
     7  C   -0.157611
     8  H    0.118292
     9  C   -0.238281
    10  H    0.131326
    11  C    0.381597
    12  N   -0.805165
    13  H    0.326062
    14  H    0.332923
    15  C   -0.197750
    16  H    0.126997
    17  C   -0.220672
    18  H    0.114989
 Sum of ESP charges =  -0.00000

 Normal termination of Gaussian 16 at Thu Apr 21 16:34:00 2022.
