 Gaussian 16, Revision A.03,

 ---------------------------------------------------------------------
 #n B3LYP/6-311++G(d,p) Opt freq EmpiricalDispersion=GD3BJ IOp(6/33=2)
 ---------------------------------------------------------------------

 -----------
 4AS geo opt
 -----------
 Symbolic Z-matrix:
 Charge =  0 Multiplicity = 1

 SCF Done:  E(RB3LYP) =  -365.130114091     A.U. after   14 cycles
 SCF Done:  E(RB3LYP) =  -365.131980483     A.U. after   12 cycles
 SCF Done:  E(RB3LYP) =  -365.132064978     A.U. after   10 cycles
 SCF Done:  E(RB3LYP) =  -365.132156518     A.U. after   11 cycles
 SCF Done:  E(RB3LYP) =  -365.132205309     A.U. after   12 cycles
 SCF Done:  E(RB3LYP) =  -365.132948582     A.U. after   12 cycles
 SCF Done:  E(RB3LYP) =  -365.124658911     A.U. after   15 cycles
 SCF Done:  E(RB3LYP) =  -365.136151896     A.U. after   13 cycles
 SCF Done:  E(RB3LYP) =  -365.137981250     A.U. after   13 cycles
 SCF Done:  E(RB3LYP) =  -365.139130053     A.U. after   13 cycles
 SCF Done:  E(RB3LYP) =  -365.139432388     A.U. after   12 cycles
 SCF Done:  E(RB3LYP) =  -365.139482715     A.U. after   12 cycles
 SCF Done:  E(RB3LYP) =  -365.139498307     A.U. after   11 cycles
 SCF Done:  E(RB3LYP) =  -365.139501574     A.U. after   10 cycles
 SCF Done:  E(RB3LYP) =  -365.139501983     A.U. after    9 cycles
 SCF Done:  E(RB3LYP) =  -365.139502007     A.U. after    8 cycles
 Optimization completed.
    -- Stationary point found.
 Normal termination of Gaussian 16 at Thu Apr 21 16:36:48 2022.

 ----------------------------------------------------------------------
 #N Geom=AllCheck Guess=TCheck SCRF=Check Test GenChk RB3LYP/6-311++G(d
 ,p) Freq
 ----------------------------------------------------------------------

 Structure from the checkpoint file:  "4AS-2.chk"
 -----------
 4AS geo opt
 -----------
 Charge =  0 Multiplicity = 1

 SCF Done:  E(RB3LYP) =  -365.139502007     A.U. after    1 cycles

  Exact polarizability: 173.736   6.480 103.072  -0.356   0.054  60.198
 Approx polarizability: 262.848  15.202 173.351  -1.516   0.155  89.352

                      1                      2                      3
                      A                      A                      A
 Frequencies --     53.1446               145.0735               211.3675
 Red. masses --      2.7517                 2.6042                 3.2818
 Frc consts  --      0.0046                 0.0323                 0.0864
 IR Inten    --      0.2002                 3.6194                 0.7899

                      4                      5                      6
                      A                      A                      A
 Frequencies --    300.5922               310.8335               377.3580
 Red. masses --      1.0330                 2.8324                 3.2351
 Frc consts  --      0.0550                 0.1612                 0.2714
 IR Inten    --     17.4485                 2.2411                 0.2177

                      7                      8                      9
                      A                      A                      A
 Frequencies --    415.9389               428.6073               487.7041
 Red. masses --      2.9069                 4.5751                 1.9563
 Frc consts  --      0.2963                 0.4952                 0.2742
 IR Inten    --      0.6979                 3.4331               104.0695

                     10                     11                     12
                      A                      A                      A
 Frequencies --    534.3063               556.6680               651.9947
 Red. masses --      2.8410                 1.5164                 1.7081
 Frc consts  --      0.4779                 0.2768                 0.4278
 IR Inten    --     87.2684               233.2183                 0.8870

                     13                     14                     15
                      A                      A                      A
 Frequencies --    659.1793               743.4224               760.4754
 Red. masses --      6.8366                 3.3865                 2.9678
 Frc consts  --      1.7502                 1.1028                 1.0112
 IR Inten    --      0.4119                 0.1811                 1.7057

                     16                     17                     18
                      A                      A                      A
 Frequencies --    815.9563               842.7948               855.1172
 Red. masses --      1.2652                 1.8839                 4.7807
 Frc consts  --      0.4963                 0.7884                 2.0596
 IR Inten    --      0.0745                60.8666                 6.6358

                     19                     20                     21
                      A                      A                      A
 Frequencies --    908.2675               947.2459               960.2852
 Red. masses --      1.3763                 1.3625                 1.3517
 Frc consts  --      0.6689                 0.7203                 0.7344
 IR Inten    --     48.8822                 0.2497                 0.0090

                     22                     23                     24
                      A                      A                      A
 Frequencies --   1023.5443              1027.0392              1045.4381
 Red. masses --      1.1334                 2.7370                 1.5118
 Frc consts  --      0.6996                 1.7010                 0.9735
 IR Inten    --     16.8472                 0.1875                 2.4877

                     25                     26                     27
                      A                      A                      A
 Frequencies --   1086.4318              1155.2595              1202.7355
 Red. masses --      1.4210                 1.2378                 1.1744
 Frc consts  --      0.9882                 0.9733                 1.0009
 IR Inten    --      2.2905                 8.1301                37.1381

                     28                     29                     30
                      A                      A                      A
 Frequencies --   1237.2414              1308.9999              1320.6408
 Red. masses --      2.2458                 3.3742                 1.8463
 Frc consts  --      2.0255                 3.4065                 1.8972
 IR Inten    --      3.4374               106.3730                 2.7711

                     31                     32                     33
                      A                      A                      A
 Frequencies --   1351.4547              1360.6219              1450.5594
 Red. masses --      1.8542                 1.6884                 1.5319
 Frc consts  --      1.9953                 1.8416                 1.8991
 IR Inten    --     13.1165                 1.2583                10.9552

                     34                     35                     36
                      A                      A                      A
 Frequencies --   1473.5600              1549.9147              1611.0670
 Red. masses --      2.0864                 2.6096                 5.6266
 Frc consts  --      2.6693                 3.6935                 8.6045
 IR Inten    --      2.8837                92.4989                 4.1609

                     37                     38                     39
                      A                      A                      A
 Frequencies --   1650.7687              1664.8069              1683.0724
 Red. masses --      2.1676                 1.7220                 4.2810
 Frc consts  --      3.4803                 2.8120                 7.1450
 IR Inten    --     26.5666               250.8363                13.9868

                     40                     41                     42
                      A                      A                      A
 Frequencies --   3125.6424              3141.1927              3152.8506
 Red. masses --      1.0840                 1.0641                 1.0867
 Frc consts  --      6.2394                 6.1862                 6.3647
 IR Inten    --     17.4824                 2.6044                19.5946

                     43                     44                     45
                      A                      A                      A
 Frequencies --   3155.2275              3170.0743              3182.8741
 Red. masses --      1.0880                 1.0942                 1.0924
 Frc consts  --      6.3816                 6.4784                 6.5201
 IR Inten    --     14.1829                20.9203                 7.9604

                     46                     47                     48
                      A                      A                      A
 Frequencies --   3221.6356              3572.9129              3672.2355
 Red. masses --      1.1149                 1.0472                 1.0995
 Frc consts  --      6.8177                 7.8762                 8.7359
 IR Inten    --     14.8060                30.9861                17.7319

 - Thermochemistry -
 -------------------
 Temperature   298.150 Kelvin.  Pressure   1.00000 Atm.
 Atom     1 has atomic number  1 and mass   1.00783

 Molecular mass:   119.07350 amu.
 Principal axes and moments of inertia in atomic units:
                           1         2         3
     Eigenvalues --   358.499171826.812512183.94547
           X            0.99999   0.00294   0.00346
           Y           -0.00293   0.99999  -0.00132
           Z           -0.00347   0.00131   0.99999
 This molecule is an asymmetric top.
 Rotational symmetry number  1.
 Rotational temperatures (Kelvin)      0.24160     0.04741     0.03966
 Rotational constants (GHZ):           5.03416     0.98792     0.82637
 Zero-point vibrational energy     392160.6 (Joules/Mol)
                                   93.72864 (Kcal/Mol)
 Warning -- explicit consideration of  11 degrees of freedom as
           vibrations may cause significant error
 Vibrational temperatures:     76.46   208.73   304.11   432.49   447.22
          (Kelvin)            542.93   598.44   616.67   701.70   768.75
                              800.92   938.08   948.41  1069.62  1094.15
                             1173.98  1212.59  1230.32  1306.79  1362.88
                             1381.64  1472.65  1477.68  1504.15  1563.13
                             1662.16  1730.47  1780.11  1883.36  1900.11
                             1944.44  1957.63  2087.03  2120.12  2229.98
                             2317.97  2375.09  2395.29  2421.57  4497.10
                             4519.48  4536.25  4539.67  4561.03  4579.45
                             4635.22  5140.62  5283.53

 Zero-point correction=                           0.149366 (Hartree/Particle)
 Thermal correction to Energy=                    0.157611
 Thermal correction to Enthalpy=                  0.158556
 Thermal correction to Gibbs Free Energy=         0.116478
 Sum of electronic and zero-point Energies=           -364.990136
 Sum of electronic and thermal Energies=              -364.981891
 Sum of electronic and thermal Enthalpies=            -364.980946
 Sum of electronic and thermal Free Energies=         -365.023024

                     E (Thermal)             CV                S
                      KCal/Mol        Cal/Mol-Kelvin    Cal/Mol-Kelvin
 Total                   98.903             32.236             88.560
 Electronic               0.000              0.000              0.000
 Translational            0.889              2.981             40.238
 Rotational               0.889              2.981             28.749
 Vibrational             97.125             26.274             19.572
 Vibration     1          0.596              1.976              4.697
 Vibration     2          0.616              1.908              2.736
 Vibration     3          0.643              1.824              2.032
 Vibration     4          0.693              1.673              1.414
 Vibration     5          0.700              1.653              1.358
 Vibration     6          0.748              1.518              1.050
 Vibration     7          0.779              1.436              0.906
 Vibration     8          0.790              1.408              0.863
 Vibration     9          0.844              1.277              0.690
 Vibration    10          0.889              1.174              0.578
 Vibration    11          0.912              1.125              0.531

 Optimization completed.
    -- Stationary point found.
 Normal termination of Gaussian 16 at Thu Apr 21 16:37:41 2022.
 Gaussian 16:  ES64L-G16RevA.03 25-Dec-2016

 ----------------------------------------------------------------------
 #P B3LYP/6-311++G(d,p) Geom=Allcheck SCF=Tight EmpiricalDispersion=GD3
 BJ Pop=CHELPG SP IOp(6/33=2)
 ----------------------------------------------------------------------

 Structure from the checkpoint file:  "4AS-2.chk"
 -----------
 4AS geo opt
 -----------
 Charge =  0 Multiplicity = 1

                         Standard orientation:
 ---------------------------------------------------------------------
 Center     Atomic      Atomic             Coordinates (Angstroms)
 Number     Number       Type             X           Y           Z
 ---------------------------------------------------------------------
      1          1           0        4.470973    0.195033   -0.009973
      2          6           0        3.426730    0.481660   -0.005499
      3          1           0        3.217479    1.545498    0.000010
      4          6           0        2.461411   -0.444338   -0.006048
      5          1           0        2.760730   -1.490408   -0.010771
      6          6           0        1.011557   -0.229282   -0.000153
      7          6           0        0.418581    1.043832    0.002690
      8          1           0        1.043351    1.929001    0.000688
      9          6           0       -0.956695    1.202286    0.006911
     10          1           0       -1.384917    2.199419    0.014714
     11          6           0       -1.809381    0.085682    0.006415
     12          7           0       -3.192530    0.247595    0.064844
     13          1           0       -3.742097   -0.534618   -0.257738
     14          1           0       -3.547324    1.132352   -0.265699
     15          6           0       -1.231141   -1.189604    0.005125
     16          1           0       -1.868257   -2.067853    0.011057
     17          6           0        0.149589   -1.334905    0.001432
     18          1           0        0.573865   -2.333585   -0.001434
 ---------------------------------------------------------------------

 SCF Done:  E(RB3LYP) =  -365.139502007     A.U. after   14 cycles

 The electronic state is 1-A.
 Alpha  occ. eigenvalues --  -14.32893 -10.22072 -10.17642 -10.17630 -10.17528
 Alpha  occ. eigenvalues --  -10.17482 -10.17366 -10.17203 -10.15953  -0.93067
 Alpha  occ. eigenvalues --   -0.85194  -0.78153  -0.75238  -0.71679  -0.62815
 Alpha  occ. eigenvalues --   -0.61525  -0.56299  -0.53008  -0.52165  -0.48088
 Alpha  occ. eigenvalues --   -0.45400  -0.44459  -0.42623  -0.41476  -0.39567
 Alpha  occ. eigenvalues --   -0.38479  -0.35346  -0.34117  -0.33824  -0.27417
 Alpha  occ. eigenvalues --   -0.25947  -0.20282
 Alpha virt. eigenvalues --   -0.03532  -0.01585  -0.01400   0.00191   0.00447
 Alpha virt. eigenvalues --    0.01881   0.02246   0.03833   0.04532   0.04908
 Alpha virt. eigenvalues --    0.05505   0.06351   0.07584   0.07715   0.08236

 Mulliken charges:
               1
     1  H    0.155462
     2  C   -0.354811
     3  H    0.121935
     4  C   -0.298254
     5  H    0.117146
     6  C    1.582464
     7  C   -1.470896
     8  H    0.049129
     9  C    0.047977
    10  H    0.172098
    11  C   -0.442208
    12  N   -0.292666
    13  H    0.238283
    14  H    0.240003
    15  C   -0.367664
    16  H    0.141875
    17  C    0.210165
    18  H    0.149961
 Sum of Mulliken charges =  -0.00000

 Dipole moment (field-independent basis, Debye):
    X=             -2.0223    Y=              0.0969    Z=             -0.9330  Tot=              2.2292
 Quadrupole moment (field-independent basis, Debye-Ang):
   XX=            -45.8679   YY=            -47.5780   ZZ=            -60.7424
   XY=             -0.6184   XZ=              3.8804   YZ=             -0.3308

 ESP charges:
               1
     1  H    0.120151
     2  C   -0.318046
     3  H    0.125192
     4  C   -0.162566
     5  H    0.111231
     6  C    0.211364
     7  C   -0.157620
     8  H    0.118295
     9  C   -0.238298
    10  H    0.131316
    11  C    0.381646
    12  N   -0.805242
    13  H    0.326056
    14  H    0.332974
    15  C   -0.197773
    16  H    0.127027
    17  C   -0.220716
    18  H    0.115006
 Sum of ESP charges =   0.00000

 Normal termination of Gaussian 16 at Thu Apr 21 16:40:05 2022.
